/*--------------------------------*- C++ -*----------------------------------*\
| =========                 |                                                 |
| \\      /  F ield         | OpenFOAM: The Open Source CFD Toolbox           |
|  \\    /   O peration     | Version:  2412                                  |
|   \\  /    A nd           | Website:  www.openfoam.com                      |
|    \\/     M anipulation  |                                                 |
\*---------------------------------------------------------------------------*/
FoamFile
{
    version     2.0;
    format      ascii;
    arch        "LSB;label=32;scalar=64";
    class       volScalarField;
    location    "1000";
    object      p;
}
// * * * * * * * * * * * * * * * * * * * * * * * * * * * * * * * * * * * * * //

dimensions      [0 2 -2 0 0 0 0];

internalField   nonuniform List<scalar> 
900
(
0
-1.92369e-06
-2.09687e-06
4.5008e-07
5.62064e-06
1.30025e-05
2.19379e-05
3.16648e-05
4.1382e-05
5.03034e-05
5.77022e-05
6.29472e-05
6.55326e-05
6.50999e-05
6.14568e-05
5.45878e-05
4.4657e-05
3.20039e-05
1.71313e-05
6.8586e-07
-1.65681e-05
-3.37823e-05
-5.00651e-05
-6.45221e-05
-7.63096e-05
-8.471e-05
-8.92374e-05
-8.9824e-05
-8.70793e-05
-8.26067e-05
-0.00122105
-0.00122347
-0.0012237
-0.00122147
-0.00121708
-0.00121089
-0.00120346
-0.00119541
-0.00118743
-0.00118016
-0.00117422
-0.00117015
-0.00116837
-0.00116918
-0.00117274
-0.00117907
-0.001188
-0.00119925
-0.00121237
-0.00122682
-0.00124192
-0.00125697
-0.0012712
-0.00128386
-0.00129427
-0.00130183
-0.00130614
-0.00130711
-0.00130489
-0.00130021
-0.00366675
-0.00366979
-0.00367042
-0.00366867
-0.00366502
-0.00365984
-0.00365363
-0.00364692
-0.0036403
-0.00363433
-0.00362953
-0.00362636
-0.00362518
-0.00362625
-0.0036297
-0.00363553
-0.00364361
-0.00365368
-0.00366534
-0.00367813
-0.00369146
-0.00370471
-0.00371723
-0.00372838
-0.00373756
-0.00374424
-0.00374803
-0.00374875
-0.00374613
-0.00374028
-0.00733466
-0.00733827
-0.00733938
-0.00733816
-0.00733519
-0.00733085
-0.00732561
-0.00731995
-0.0073144
-0.00730942
-0.00730549
-0.00730299
-0.00730224
-0.00730346
-0.00730676
-0.00731214
-0.00731948
-0.00732854
-0.00733898
-0.00735038
-0.00736223
-0.00737399
-0.00738508
-0.00739494
-0.00740301
-0.00740882
-0.00741194
-0.00741209
-0.00740871
-0.00740163
-0.0122206
-0.0122246
-0.012226
-0.0122253
-0.0122229
-0.0122193
-0.0122149
-0.0122101
-0.0122054
-0.0122013
-0.012198
-0.0121961
-0.0121956
-0.0121969
-0.0122001
-0.012205
-0.0122116
-0.0122198
-0.0122291
-0.0122393
-0.0122498
-0.0122603
-0.0122701
-0.0122787
-0.0122858
-0.0122907
-0.0122932
-0.0122927
-0.0122887
-0.0122808
-0.0183189
-0.0183229
-0.0183246
-0.0183241
-0.0183223
-0.0183193
-0.0183156
-0.0183115
-0.0183076
-0.0183041
-0.0183015
-0.0182999
-0.0182997
-0.018301
-0.018304
-0.0183085
-0.0183145
-0.0183218
-0.0183301
-0.0183391
-0.0183485
-0.0183577
-0.0183663
-0.0183739
-0.01838
-0.0183842
-0.018386
-0.018385
-0.0183806
-0.0183722
-0.0256222
-0.025626
-0.0256277
-0.0256276
-0.0256261
-0.0256236
-0.0256205
-0.0256171
-0.0256138
-0.0256109
-0.0256087
-0.0256075
-0.0256075
-0.0256088
-0.0256115
-0.0256156
-0.0256209
-0.0256274
-0.0256348
-0.0256428
-0.025651
-0.0256591
-0.0256667
-0.0256733
-0.0256785
-0.025682
-0.0256832
-0.0256819
-0.0256772
-0.0256689
-0.0341219
-0.0341254
-0.0341271
-0.0341271
-0.034126
-0.0341239
-0.0341214
-0.0341185
-0.0341158
-0.0341134
-0.0341116
-0.0341107
-0.0341108
-0.034112
-0.0341144
-0.0341181
-0.0341228
-0.0341285
-0.034135
-0.0341419
-0.0341491
-0.0341561
-0.0341627
-0.0341684
-0.0341728
-0.0341756
-0.0341764
-0.0341749
-0.0341703
-0.0341623
-0.0438084
-0.0438115
-0.043813
-0.0438132
-0.0438123
-0.0438106
-0.0438085
-0.0438062
-0.0438039
-0.0438019
-0.0438005
-0.0437998
-0.0438
-0.0438011
-0.0438033
-0.0438065
-0.0438106
-0.0438155
-0.0438211
-0.0438271
-0.0438332
-0.0438392
-0.0438448
-0.0438496
-0.0438533
-0.0438555
-0.043856
-0.0438544
-0.0438501
-0.0438427
-0.0546708
-0.0546735
-0.0546748
-0.054675
-0.0546743
-0.054673
-0.0546713
-0.0546694
-0.0546676
-0.054666
-0.0546649
-0.0546644
-0.0546646
-0.0546657
-0.0546675
-0.0546702
-0.0546737
-0.0546779
-0.0546826
-0.0546876
-0.0546927
-0.0546978
-0.0547024
-0.0547064
-0.0547094
-0.0547111
-0.0547114
-0.0547098
-0.0547059
-0.0546994
-0.0666976
-0.0666998
-0.0667009
-0.0667011
-0.0667006
-0.0666996
-0.0666982
-0.0666968
-0.0666954
-0.0666942
-0.0666933
-0.066693
-0.0666932
-0.0666941
-0.0666957
-0.0666979
-0.0667008
-0.0667041
-0.066708
-0.066712
-0.0667162
-0.0667202
-0.066724
-0.0667271
-0.0667295
-0.0667309
-0.0667309
-0.0667295
-0.0667262
-0.0667207
-0.0798763
-0.079878
-0.0798788
-0.079879
-0.0798786
-0.0798779
-0.0798769
-0.0798759
-0.0798748
-0.079874
-0.0798734
-0.0798732
-0.0798734
-0.0798741
-0.0798754
-0.0798771
-0.0798793
-0.079882
-0.0798849
-0.079888
-0.0798912
-0.0798943
-0.0798971
-0.0798995
-0.0799013
-0.0799023
-0.0799023
-0.0799011
-0.0798985
-0.0798941
-0.0941938
-0.094195
-0.0941956
-0.0941957
-0.0941954
-0.094195
-0.0941943
-0.0941936
-0.094193
-0.0941924
-0.0941921
-0.094192
-0.0941922
-0.0941927
-0.0941936
-0.0941949
-0.0941965
-0.0941983
-0.0942004
-0.0942026
-0.0942048
-0.0942069
-0.0942089
-0.0942105
-0.0942118
-0.0942124
-0.0942124
-0.0942115
-0.0942096
-0.0942065
-0.109637
-0.109637
-0.109637
-0.109638
-0.109637
-0.109637
-0.109637
-0.109637
-0.109636
-0.109636
-0.109636
-0.109636
-0.109636
-0.109636
-0.109637
-0.109638
-0.109639
-0.10964
-0.109641
-0.109642
-0.109643
-0.109645
-0.109646
-0.109647
-0.109647
-0.109648
-0.109648
-0.109647
-0.109646
-0.109644
-0.12619
-0.126191
-0.126191
-0.126191
-0.126191
-0.126191
-0.126191
-0.126191
-0.126191
-0.126191
-0.126191
-0.126191
-0.126191
-0.126191
-0.126191
-0.126192
-0.126192
-0.126192
-0.126192
-0.126193
-0.126193
-0.126193
-0.126194
-0.126194
-0.126194
-0.126194
-0.126194
-0.126194
-0.126194
-0.126193
-0.143841
-0.143841
-0.143841
-0.143841
-0.143841
-0.143841
-0.143841
-0.143842
-0.143842
-0.143842
-0.143843
-0.143843
-0.143843
-0.143843
-0.143843
-0.143842
-0.143842
-0.143842
-0.143841
-0.14384
-0.14384
-0.143839
-0.143839
-0.143838
-0.143838
-0.143838
-0.143837
-0.143838
-0.143838
-0.143839
-0.162575
-0.162574
-0.162574
-0.162574
-0.162574
-0.162574
-0.162575
-0.162575
-0.162576
-0.162577
-0.162577
-0.162577
-0.162577
-0.162577
-0.162577
-0.162576
-0.162575
-0.162574
-0.162572
-0.162571
-0.162569
-0.162568
-0.162566
-0.162565
-0.162564
-0.162564
-0.162564
-0.162564
-0.162566
-0.162568
-0.182377
-0.182376
-0.182375
-0.182375
-0.182375
-0.182376
-0.182377
-0.182378
-0.182379
-0.18238
-0.18238
-0.182381
-0.182381
-0.18238
-0.182379
-0.182378
-0.182376
-0.182374
-0.182372
-0.18237
-0.182367
-0.182365
-0.182363
-0.182361
-0.182359
-0.182359
-0.182359
-0.182359
-0.182361
-0.182365
-0.203234
-0.203232
-0.203231
-0.203231
-0.203231
-0.203232
-0.203233
-0.203235
-0.203236
-0.203237
-0.203238
-0.203238
-0.203238
-0.203238
-0.203237
-0.203235
-0.203233
-0.20323
-0.203227
-0.203223
-0.20322
-0.203217
-0.203214
-0.203211
-0.203209
-0.203208
-0.203208
-0.203209
-0.203212
-0.203216
-0.225132
-0.225129
-0.225128
-0.225128
-0.225129
-0.22513
-0.225131
-0.225133
-0.225134
-0.225136
-0.225137
-0.225137
-0.225137
-0.225136
-0.225135
-0.225133
-0.22513
-0.225126
-0.225122
-0.225118
-0.225114
-0.22511
-0.225106
-0.225103
-0.2251
-0.225099
-0.225099
-0.2251
-0.225103
-0.225109
-0.248058
-0.248055
-0.248053
-0.248053
-0.248054
-0.248055
-0.248057
-0.248059
-0.248061
-0.248063
-0.248064
-0.248064
-0.248064
-0.248063
-0.248062
-0.248059
-0.248055
-0.248051
-0.248046
-0.248041
-0.248036
-0.248031
-0.248026
-0.248022
-0.248019
-0.248017
-0.248017
-0.248019
-0.248023
-0.248029
-0.271999
-0.271996
-0.271994
-0.271994
-0.271995
-0.271997
-0.271999
-0.272001
-0.272003
-0.272005
-0.272007
-0.272007
-0.272007
-0.272006
-0.272004
-0.272001
-0.271997
-0.271992
-0.271986
-0.271981
-0.271974
-0.271968
-0.271963
-0.271958
-0.271954
-0.271952
-0.271952
-0.271953
-0.271957
-0.271965
-0.296944
-0.296941
-0.296939
-0.296939
-0.29694
-0.296942
-0.296945
-0.296947
-0.29695
-0.296952
-0.296954
-0.296955
-0.296955
-0.296954
-0.296951
-0.296948
-0.296943
-0.296937
-0.296931
-0.296924
-0.296917
-0.29691
-0.296904
-0.296898
-0.296894
-0.296891
-0.29689
-0.296892
-0.296896
-0.296904
-0.322883
-0.322879
-0.322878
-0.322878
-0.322879
-0.322881
-0.322884
-0.322888
-0.322891
-0.322893
-0.322895
-0.322896
-0.322896
-0.322895
-0.322892
-0.322888
-0.322883
-0.322877
-0.32287
-0.322862
-0.322854
-0.322846
-0.322838
-0.322832
-0.322827
-0.322824
-0.322822
-0.322824
-0.322828
-0.322836
-0.349805
-0.349801
-0.3498
-0.3498
-0.349802
-0.349805
-0.349808
-0.349812
-0.349816
-0.349819
-0.349821
-0.349822
-0.349822
-0.349821
-0.349818
-0.349814
-0.349808
-0.349801
-0.349793
-0.349784
-0.349775
-0.349766
-0.349758
-0.34975
-0.349744
-0.34974
-0.349739
-0.349739
-0.349744
-0.349752
-0.377703
-0.377699
-0.377698
-0.377698
-0.377701
-0.377704
-0.377708
-0.377712
-0.377717
-0.37772
-0.377723
-0.377725
-0.377725
-0.377723
-0.37772
-0.377715
-0.377709
-0.377701
-0.377692
-0.377682
-0.377672
-0.377662
-0.377653
-0.377644
-0.377638
-0.377633
-0.37763
-0.377631
-0.377635
-0.377643
-0.406568
-0.406565
-0.406564
-0.406565
-0.406568
-0.406572
-0.406576
-0.406581
-0.406587
-0.406591
-0.406594
-0.406596
-0.406597
-0.406595
-0.406592
-0.406587
-0.40658
-0.406571
-0.406561
-0.40655
-0.406539
-0.406528
-0.406517
-0.406507
-0.4065
-0.406494
-0.406491
-0.406491
-0.406494
-0.406501
-0.436396
-0.436393
-0.436392
-0.436394
-0.436397
-0.436402
-0.436408
-0.436414
-0.43642
-0.436425
-0.436429
-0.436432
-0.436433
-0.436431
-0.436428
-0.436422
-0.436414
-0.436405
-0.436394
-0.436381
-0.436369
-0.436356
-0.436344
-0.436333
-0.436324
-0.436318
-0.436314
-0.436314
-0.436316
-0.436322
-0.467182
-0.467179
-0.467179
-0.467181
-0.467185
-0.467191
-0.467197
-0.467205
-0.467212
-0.467218
-0.467224
-0.467227
-0.467228
-0.467227
-0.467224
-0.467218
-0.467209
-0.467198
-0.467186
-0.467172
-0.467158
-0.467143
-0.46713
-0.467117
-0.467107
-0.4671
-0.467096
-0.467095
-0.467097
-0.467102
-0.498924
-0.498922
-0.498921
-0.498924
-0.498928
-0.498935
-0.498943
-0.498952
-0.498961
-0.498969
-0.498976
-0.49898
-0.498982
-0.498981
-0.498978
-0.498971
-0.498962
-0.49895
-0.498935
-0.49892
-0.498903
-0.498887
-0.498871
-0.498857
-0.498846
-0.498838
-0.498833
-0.498833
-0.498836
-0.49884
)
;

boundaryField
{
    floor
    {
        type            calculated;
        value           nonuniform List<scalar> 
30
(
0.000306029
0.000304207
0.000304126
0.000306763
0.000312023
0.000319492
0.000328511
0.000338319
0.00034811
0.000357097
0.00036455
0.000369836
0.000372447
0.000372023
0.000368371
0.000361476
0.000351503
0.000338791
0.000323846
0.000307318
0.000289972
0.00027266
0.000256277
0.000241717
0.000229828
0.000221326
0.0002167
0.000216018
0.000218669
0.00022305
)
;
    }
    ceiling
    {
        type            calculated;
        value           nonuniform List<scalar> 
30
(
-0.515037
-0.515035
-0.515035
-0.515037
-0.515042
-0.515049
-0.515057
-0.515066
-0.515075
-0.515083
-0.51509
-0.515094
-0.515096
-0.515096
-0.515092
-0.515085
-0.515076
-0.515064
-0.515049
-0.515034
-0.515017
-0.515001
-0.514985
-0.514971
-0.514959
-0.514951
-0.514947
-0.514946
-0.514949
-0.514953
)
;
    }
    fixedWalls
    {
        type            calculated;
        value           nonuniform List<scalar> 
60
(
0
-0.00122105
-0.00366675
-0.00733466
-0.0122206
-0.0183189
-0.0256222
-0.0341219
-0.0438084
-0.0546708
-0.0666976
-0.0798763
-0.0941938
-0.109637
-0.12619
-0.143841
-0.162575
-0.182377
-0.203234
-0.225132
-0.248058
-0.271999
-0.296944
-0.322883
-0.349805
-0.377703
-0.406568
-0.436396
-0.467182
-0.498924
-8.26067e-05
-0.00130021
-0.00374028
-0.00740163
-0.0122808
-0.0183722
-0.0256689
-0.0341623
-0.0438427
-0.0546994
-0.0667207
-0.0798941
-0.0942065
-0.109644
-0.126193
-0.143839
-0.162568
-0.182365
-0.203216
-0.225109
-0.248029
-0.271965
-0.296904
-0.322836
-0.349752
-0.377643
-0.406501
-0.436322
-0.467102
-0.49884
)
;
    }
    frontAndBack
    {
        type            empty;
    }
}


// ************************************************************************* //
