/*--------------------------------*- C++ -*----------------------------------*\
| =========                 |                                                 |
| \\      /  F ield         | OpenFOAM: The Open Source CFD Toolbox           |
|  \\    /   O peration     | Version:  2412                                  |
|   \\  /    A nd           | Website:  www.openfoam.com                      |
|    \\/     M anipulation  |                                                 |
\*---------------------------------------------------------------------------*/
FoamFile
{
    version     2.0;
    format      ascii;
    arch        "LSB;label=32;scalar=64";
    class       volScalarField;
    location    "1000";
    object      p_rgh;
}
// * * * * * * * * * * * * * * * * * * * * * * * * * * * * * * * * * * * * * //

dimensions      [0 2 -2 0 0 0 0];

internalField   nonuniform List<scalar> 
900
(
0.000306029
0.000304207
0.000304126
0.000306763
0.000312023
0.000319492
0.000328511
0.000338319
0.00034811
0.000357097
0.00036455
0.000369836
0.000372447
0.000372023
0.000368371
0.000361476
0.000351503
0.000338791
0.000323846
0.000307318
0.000289972
0.00027266
0.000256277
0.000241717
0.000229828
0.000221326
0.0002167
0.000216018
0.000218669
0.00022305
0.00153185
0.00153032
0.00153091
0.00153395
0.00153914
0.00154611
0.0015543
0.00156307
0.00157173
0.00157958
0.00158601
0.00159045
0.00159246
0.00159173
0.00158809
0.00158153
0.00157221
0.00156044
0.00154666
0.00153147
0.00151553
0.00149961
0.00148447
0.00147088
0.00145955
0.00145108
0.00144589
0.00144406
0.00144544
0.0014493
0.00397398
0.00397336
0.00397497
0.00397894
0.00398479
0.00399214
0.00400047
0.00400918
0.00401766
0.00402527
0.00403143
0.00403562
0.00403744
0.00403659
0.00403293
0.00402645
0.00401729
0.00400576
0.00399228
0.0039774
0.00396177
0.00394607
0.00393101
0.00391729
0.00390556
0.00389637
0.00389014
0.00388705
0.00388735
0.00389091
0.00762324
0.00762423
0.00762745
0.00763297
0.00764023
0.0076488
0.00765816
0.00766774
0.00767694
0.00768512
0.00769171
0.0076962
0.0076982
0.00769741
0.00769368
0.00768703
0.00767759
0.00766565
0.00765166
0.00763616
0.00761978
0.00760322
0.00758716
0.00757228
0.00755921
0.00754851
0.00754064
0.0075359
0.00753479
0.00753741
0.0124665
0.01247
0.0124756
0.0124833
0.0124927
0.0125033
0.0125144
0.0125257
0.0125363
0.0125457
0.0125533
0.0125586
0.0125611
0.0125605
0.0125566
0.0125496
0.0125395
0.0125266
0.0125114
0.0124945
0.0124765
0.0124581
0.0124401
0.0124232
0.0124079
0.012395
0.0123848
0.0123777
0.0123745
0.0123752
0.0184871
0.018494
0.0185026
0.0185132
0.0185254
0.0185386
0.0185523
0.0185659
0.0185786
0.0185899
0.018599
0.0186054
0.0186086
0.0186083
0.0186044
0.0185967
0.0185856
0.0185713
0.0185543
0.0185352
0.0185148
0.0184938
0.018473
0.0184532
0.0184349
0.018419
0.0184058
0.0183958
0.0183896
0.0183873
0.025665
0.0256758
0.0256881
0.0257022
0.0257178
0.0257343
0.0257511
0.0257676
0.025783
0.0257966
0.0258076
0.0258155
0.0258197
0.0258198
0.0258157
0.0258073
0.0257948
0.0257786
0.0257593
0.0257375
0.025714
0.0256897
0.0256654
0.0256419
0.02562
0.0256003
0.0255835
0.0255698
0.0255599
0.0255537
0.0339768
0.0339922
0.0340086
0.0340268
0.0340462
0.0340664
0.0340869
0.0341068
0.0341253
0.0341416
0.0341549
0.0341645
0.0341698
0.0341704
0.034166
0.0341567
0.0341427
0.0341244
0.0341023
0.0340772
0.0340501
0.0340219
0.0339934
0.0339657
0.0339395
0.0339156
0.0338945
0.0338766
0.0338623
0.0338515
0.0433965
0.0434169
0.0434379
0.0434604
0.043484
0.0435084
0.0435328
0.0435565
0.0435784
0.0435978
0.0436136
0.0436251
0.0436316
0.0436327
0.0436281
0.0436178
0.0436021
0.0435813
0.0435562
0.0435275
0.0434964
0.0434637
0.0434307
0.0433983
0.0433673
0.0433387
0.0433129
0.0432903
0.0432712
0.0432551
0.0538958
0.0539215
0.0539472
0.0539743
0.0540025
0.0540313
0.0540599
0.0540875
0.0541131
0.0541356
0.054154
0.0541675
0.0541754
0.054177
0.0541722
0.0541609
0.0541433
0.0541199
0.0540915
0.0540591
0.0540236
0.0539863
0.0539484
0.0539109
0.0538749
0.0538412
0.0538105
0.0537828
0.0537584
0.0537367
0.0654448
0.0654758
0.0655064
0.0655382
0.065571
0.0656042
0.0656371
0.0656687
0.065698
0.0657238
0.0657449
0.0657605
0.0657697
0.0657719
0.0657668
0.0657544
0.065735
0.065709
0.0656773
0.0656409
0.065601
0.065559
0.0655161
0.0654734
0.0654322
0.0653933
0.0653573
0.0653244
0.0652946
0.0652669
0.078012
0.0780483
0.0780838
0.0781203
0.0781576
0.0781953
0.0782324
0.0782681
0.078301
0.0783299
0.0783538
0.0783713
0.0783819
0.0783846
0.0783793
0.0783659
0.0783446
0.078316
0.0782811
0.0782408
0.0781967
0.0781499
0.078102
0.0780542
0.0780078
0.0779637
0.0779225
0.0778843
0.0778489
0.0778152
0.0915657
0.0916072
0.0916474
0.0916884
0.0917301
0.091772
0.0918133
0.0918527
0.0918891
0.0919211
0.0919474
0.0919669
0.0919787
0.091982
0.0919764
0.091962
0.091939
0.0919081
0.0918701
0.0918262
0.0917779
0.0917267
0.091674
0.0916213
0.0915699
0.0915207
0.0914744
0.091431
0.0913902
0.0913505
0.106074
0.106121
0.106165
0.10621
0.106256
0.106302
0.106347
0.10639
0.106429
0.106464
0.106493
0.106514
0.106527
0.106531
0.106525
0.10651
0.106485
0.106452
0.106412
0.106364
0.106312
0.106257
0.1062
0.106143
0.106087
0.106033
0.105982
0.105933
0.105887
0.105842
0.121506
0.121557
0.121606
0.121655
0.121704
0.121754
0.121802
0.121848
0.12189
0.121927
0.121958
0.121981
0.121995
0.121999
0.121993
0.121977
0.121951
0.121916
0.121873
0.121824
0.121768
0.121709
0.121649
0.121587
0.121527
0.121469
0.121414
0.121361
0.12131
0.121259
0.137833
0.137887
0.13794
0.137992
0.138044
0.138097
0.138148
0.138196
0.138241
0.13828
0.138312
0.138336
0.138351
0.138355
0.138349
0.138333
0.138306
0.13827
0.138225
0.138173
0.138116
0.138054
0.13799
0.137925
0.137862
0.1378
0.137741
0.137684
0.137628
0.137573
0.155025
0.155083
0.155138
0.155193
0.155248
0.155303
0.155356
0.155406
0.155452
0.155493
0.155526
0.155551
0.155566
0.155571
0.155565
0.155549
0.155522
0.155484
0.155438
0.155385
0.155326
0.155262
0.155196
0.155129
0.155062
0.154998
0.154936
0.154875
0.154816
0.154756
0.173059
0.17312
0.173177
0.173234
0.17329
0.173346
0.173401
0.173452
0.173499
0.17354
0.173574
0.1736
0.173615
0.173621
0.173615
0.173598
0.173571
0.173534
0.173487
0.173433
0.173373
0.173308
0.173241
0.173172
0.173104
0.173038
0.172973
0.172911
0.172848
0.172785
0.191913
0.191975
0.192033
0.192091
0.192148
0.192205
0.19226
0.192311
0.192359
0.1924
0.192434
0.19246
0.192475
0.192481
0.192476
0.192459
0.192432
0.192395
0.192349
0.192295
0.192235
0.19217
0.192103
0.192034
0.191965
0.191898
0.191832
0.191768
0.191704
0.191637
0.211567
0.21163
0.211689
0.211747
0.211804
0.21186
0.211914
0.211966
0.212012
0.212053
0.212087
0.212112
0.212127
0.212133
0.212128
0.212112
0.212086
0.21205
0.212005
0.211953
0.211894
0.21183
0.211764
0.211696
0.211627
0.21156
0.211494
0.211429
0.211364
0.211296
0.232009
0.232071
0.23213
0.232187
0.232243
0.232298
0.232351
0.2324
0.232445
0.232485
0.232517
0.232542
0.232557
0.232563
0.232558
0.232543
0.232518
0.232484
0.232441
0.232391
0.232334
0.232273
0.232209
0.232143
0.232076
0.23201
0.231945
0.231881
0.231816
0.231747
0.253229
0.25329
0.253346
0.253401
0.253455
0.253508
0.253558
0.253606
0.253648
0.253686
0.253717
0.25374
0.253754
0.25376
0.253756
0.253742
0.253719
0.253687
0.253647
0.2536
0.253547
0.253489
0.253428
0.253366
0.253302
0.253239
0.253176
0.253113
0.253049
0.252982
0.275222
0.275281
0.275334
0.275386
0.275437
0.275486
0.275533
0.275577
0.275617
0.275651
0.27568
0.275701
0.275715
0.27572
0.275717
0.275705
0.275684
0.275655
0.275619
0.275576
0.275527
0.275474
0.275418
0.27536
0.275301
0.275242
0.275182
0.275123
0.275061
0.274996
0.297991
0.298045
0.298095
0.298143
0.298189
0.298234
0.298277
0.298316
0.298352
0.298383
0.298408
0.298428
0.29844
0.298445
0.298442
0.298432
0.298414
0.298389
0.298357
0.298319
0.298276
0.298229
0.298179
0.298127
0.298073
0.298019
0.297965
0.297909
0.297852
0.29779
0.32154
0.321589
0.321634
0.321677
0.321718
0.321758
0.321795
0.321829
0.32186
0.321886
0.321908
0.321925
0.321936
0.32194
0.321939
0.32193
0.321916
0.321895
0.321868
0.321837
0.321801
0.321761
0.321718
0.321672
0.321626
0.321578
0.32153
0.32148
0.321427
0.321371
0.345883
0.345926
0.345965
0.346001
0.346036
0.346069
0.3461
0.346128
0.346153
0.346175
0.346193
0.346206
0.346215
0.346219
0.346218
0.346212
0.346201
0.346186
0.346165
0.34614
0.346112
0.34608
0.346045
0.346009
0.34597
0.345931
0.345889
0.345846
0.345801
0.34575
0.371037
0.371073
0.371104
0.371134
0.371161
0.371186
0.37121
0.371231
0.37125
0.371266
0.371279
0.371289
0.371296
0.3713
0.3713
0.371296
0.371289
0.371279
0.371265
0.371248
0.371228
0.371206
0.371181
0.371153
0.371124
0.371094
0.371061
0.371026
0.370988
0.370946
0.397026
0.397053
0.397076
0.397097
0.397117
0.397134
0.397149
0.397162
0.397174
0.397184
0.397192
0.397198
0.397203
0.397205
0.397207
0.397206
0.397203
0.397199
0.397192
0.397184
0.397174
0.397161
0.397147
0.39713
0.397112
0.397091
0.397068
0.397042
0.397014
0.396981
0.423879
0.423896
0.42391
0.423922
0.423932
0.42394
0.423947
0.423951
0.423955
0.423958
0.42396
0.423962
0.423964
0.423966
0.423968
0.42397
0.423973
0.423975
0.423976
0.423977
0.423978
0.423976
0.423974
0.423969
0.423962
0.423952
0.423939
0.423924
0.423905
0.423884
0.451627
0.451634
0.45164
0.451642
0.451642
0.45164
0.451637
0.451632
0.451627
0.451622
0.451618
0.451615
0.451615
0.451616
0.451619
0.451624
0.451631
0.45164
0.451651
0.451662
0.451674
0.451685
0.451695
0.451703
0.451708
0.45171
0.451709
0.451704
0.451695
0.451685
)
;

boundaryField
{
    floor
    {
        type            fixedFluxPressure;
        gradient        uniform 0;
        value           nonuniform List<scalar> 
30
(
0.000306029
0.000304207
0.000304126
0.000306763
0.000312023
0.000319492
0.000328511
0.000338319
0.00034811
0.000357097
0.00036455
0.000369836
0.000372447
0.000372023
0.000368371
0.000361476
0.000351503
0.000338791
0.000323846
0.000307318
0.000289972
0.00027266
0.000256277
0.000241717
0.000229828
0.000221326
0.0002167
0.000216018
0.000218669
0.00022305
)
;
    }
    ceiling
    {
        type            fixedFluxPressure;
        gradient        nonuniform List<scalar> 
30
(
8.60259
8.59961
8.59662
8.59364
8.59069
8.58782
8.58508
8.58254
8.58026
8.57831
8.57673
8.57557
8.57488
8.57468
8.575
8.57583
8.57717
8.57899
8.58126
8.58392
8.58692
8.59021
8.59368
8.59726
8.60087
8.60446
8.608
8.6115
8.61502
8.61873
)
;
        value           nonuniform List<scalar> 
30
(
0.465963
0.465965
0.465965
0.465963
0.465958
0.465951
0.465943
0.465934
0.465925
0.465917
0.46591
0.465906
0.465904
0.465904
0.465908
0.465915
0.465924
0.465936
0.465951
0.465966
0.465983
0.465999
0.466015
0.466029
0.466041
0.466049
0.466053
0.466054
0.466051
0.466047
)
;
    }
    fixedWalls
    {
        type            fixedFluxPressure;
        gradient        uniform 0;
        value           nonuniform List<scalar> 
60
(
0.000306029
0.00153185
0.00397398
0.00762324
0.0124665
0.0184871
0.025665
0.0339768
0.0433965
0.0538958
0.0654448
0.078012
0.0915657
0.106074
0.121506
0.137833
0.155025
0.173059
0.191913
0.211567
0.232009
0.253229
0.275222
0.297991
0.32154
0.345883
0.371037
0.397026
0.423879
0.451627
0.00022305
0.0014493
0.00389091
0.00753741
0.0123752
0.0183873
0.0255537
0.0338515
0.0432551
0.0537367
0.0652669
0.0778152
0.0913505
0.105842
0.121259
0.137573
0.154756
0.172785
0.191637
0.211296
0.231747
0.252982
0.274996
0.29779
0.321371
0.34575
0.370946
0.396981
0.423884
0.451685
)
;
    }
    frontAndBack
    {
        type            empty;
    }
}


// ************************************************************************* //
