/*--------------------------------*- C++ -*----------------------------------*\
| =========                 |                                                 |
| \\      /  F ield         | OpenFOAM: The Open Source CFD Toolbox           |
|  \\    /   O peration     | Version:  2412                                  |
|   \\  /    A nd           | Website:  www.openfoam.com                      |
|    \\/     M anipulation  |                                                 |
\*---------------------------------------------------------------------------*/
FoamFile
{
    version     2.0;
    format      ascii;
    arch        "LSB;label=32;scalar=64";
    class       surfaceScalarField;
    location    "1000";
    object      phi;
}
// * * * * * * * * * * * * * * * * * * * * * * * * * * * * * * * * * * * * * //

dimensions      [0 3 -1 0 0 0 0];

oriented        oriented;

internalField   nonuniform List<scalar> 
1740
(
-7.3475e-10
6.29771e-10
-2.7966e-09
2.06242e-09
-5.6477e-09
2.85171e-09
-8.61211e-09
2.96512e-09
-1.11598e-08
2.54825e-09
-1.29098e-08
1.75046e-09
-1.36154e-08
7.05714e-10
-1.31443e-08
-4.71183e-10
-1.14645e-08
-1.6802e-09
-8.63154e-09
-2.83349e-09
-4.77742e-09
-3.85487e-09
-9.8015e-11
-4.68025e-09
5.1596e-09
-5.2585e-09
1.0711e-08
-5.55233e-09
1.62497e-08
-5.53959e-09
2.1463e-08
-5.21405e-09
2.60479e-08
-4.58571e-09
2.9728e-08
-3.68072e-09
3.22683e-08
-2.54093e-09
3.34909e-08
-1.22299e-09
3.32877e-08
2.02783e-10
3.16336e-08
1.65395e-09
2.85966e-08
3.03695e-09
2.43519e-08
4.24478e-09
1.91977e-08
5.15456e-09
1.35733e-08
5.62502e-09
8.07731e-09
5.49682e-09
3.46643e-09
4.6121e-09
5.93278e-10
2.87474e-09
5.95023e-10
-2.22496e-09
2.85525e-09
-7.28061e-09
7.12037e-09
-1.37554e-08
9.32853e-09
-2.03279e-08
9.53958e-09
-2.59005e-08
8.12225e-09
-2.96378e-08
5.4886e-09
-3.09674e-08
2.03564e-09
-2.95657e-08
-1.87296e-09
-2.534e-08
-5.90653e-09
-1.8407e-08
-9.7674e-09
-9.06915e-09
-1.31938e-08
2.21331e-09
-1.5964e-08
1.48534e-08
-1.78998e-08
2.81717e-08
-1.88719e-08
4.14344e-08
-1.88034e-08
5.38921e-08
-1.76728e-08
6.48209e-08
-1.55153e-08
7.35619e-08
-1.24223e-08
7.95601e-08
-8.53948e-09
8.24011e-08
-4.06398e-09
8.18436e-08
7.60542e-10
7.78487e-08
5.64943e-09
7.0605e-08
1.02818e-08
6.05524e-08
1.42989e-08
4.84048e-08
1.73042e-08
3.51661e-08
1.88664e-08
2.21308e-08
1.85351e-08
1.0845e-08
1.59012e-08
2.98051e-09
1.07424e-08
3.57695e-09
-3.2402e-09
6.0961e-09
-1.02334e-08
1.41153e-08
-1.89256e-08
1.80224e-08
-2.76108e-08
1.82261e-08
-3.48806e-08
1.53928e-08
-3.96431e-08
1.02515e-08
-4.11319e-08
3.52439e-09
-3.89027e-08
-4.10269e-09
-3.28199e-08
-1.19902e-08
-2.30354e-08
-1.95532e-08
-9.95863e-09
-2.6272e-08
5.7795e-09
-3.17036e-08
2.33692e-08
-3.5491e-08
4.18704e-08
-3.73746e-08
6.0266e-08
-3.72003e-08
7.75175e-08
-3.49255e-08
9.26222e-08
-3.06209e-08
1.0467e-07
-2.44705e-08
1.12897e-07
-1.67671e-08
1.16739e-07
-7.90585e-09
1.15873e-07
1.62618e-09
1.10261e-07
1.12619e-08
1.00178e-07
2.0366e-08
8.62385e-08
2.82394e-08
6.94166e-08
3.41277e-08
5.10483e-08
3.72368e-08
3.28171e-08
3.67688e-08
1.67108e-08
3.20104e-08
4.94987e-09
2.2506e-08
8.52774e-09
-3.74908e-09
9.84629e-09
-1.17786e-08
2.21471e-08
-2.16586e-08
2.79045e-08
-3.1438e-08
2.8007e-08
-3.95314e-08
2.34873e-08
-4.47099e-08
1.54306e-08
-4.61042e-08
4.91883e-09
-4.32051e-08
-7.00217e-09
-3.58544e-08
-1.93417e-08
-2.42246e-08
-3.11839e-08
-8.78882e-09
-4.1709e-08
9.7206e-09
-5.02143e-08
3.03602e-08
-5.61319e-08
5.20329e-08
-5.90484e-08
7.35502e-08
-5.87188e-08
9.36988e-08
-5.50749e-08
1.11307e-07
-4.82302e-08
1.25315e-07
-3.84781e-08
1.34833e-07
-2.62854e-08
1.39208e-07
-1.22807e-08
1.38072e-07
2.7627e-09
1.31388e-07
1.79478e-08
1.1948e-07
3.2275e-08
1.03065e-07
4.46561e-08
8.32591e-08
5.39349e-08
6.15812e-08
5.89164e-08
3.99358e-08
5.84161e-08
2.05967e-08
5.13515e-08
6.2139e-09
3.68906e-08
1.47419e-08
-3.89119e-09
1.37386e-08
-1.22643e-08
3.05223e-08
-2.25487e-08
3.81904e-08
-3.26769e-08
3.81364e-08
-4.09819e-08
3.17932e-08
-4.61757e-08
2.06246e-08
-4.73464e-08
6.08929e-09
-4.39586e-08
-1.03906e-08
-3.58461e-08
-2.74553e-08
-2.31927e-08
-4.38385e-08
-6.50239e-09
-5.84008e-08
1.34432e-08
-7.01613e-08
3.56354e-08
-7.83256e-08
5.89004e-08
-8.23147e-08
8.19656e-08
-8.17852e-08
1.03532e-07
-7.66418e-08
1.22344e-07
-6.70437e-08
1.37268e-07
-5.34026e-08
1.47356e-07
-3.63728e-08
1.51909e-07
-1.68338e-08
1.50538e-07
4.13437e-09
1.43204e-07
2.52821e-08
1.30258e-07
4.52221e-08
1.12459e-07
6.24556e-08
9.09909e-08
7.54046e-08
6.74565e-08
8.24519e-08
4.3878e-08
8.19956e-08
2.27041e-08
7.25263e-08
6.8661e-09
5.27293e-08
2.16077e-08
-3.78813e-09
1.75278e-08
-1.20062e-08
3.8742e-08
-2.21166e-08
4.8302e-08
-3.20484e-08
4.80692e-08
-4.01308e-08
3.9876e-08
-4.50744e-08
2.55682e-08
-4.59674e-08
6.98191e-09
-4.22754e-08
-1.40835e-08
-3.38335e-08
-3.58983e-08
-2.08289e-08
-5.68443e-08
-3.77128e-09
-7.54598e-08
1.65487e-08
-9.04827e-08
3.91104e-08
-1.00889e-07
6.27254e-08
-1.05931e-07
8.6105e-08
-1.05166e-07
1.07933e-07
-9.84706e-08
1.26939e-07
-8.60505e-08
1.41973e-07
-6.84373e-08
1.52076e-07
-4.64759e-08
1.56542e-07
-2.13001e-08
1.54977e-07
5.69939e-09
1.47343e-07
3.29165e-08
1.33993e-07
5.85728e-08
1.15693e-07
8.07558e-08
9.36368e-08
9.74613e-08
6.94469e-08
1.06642e-07
4.51825e-08
1.0626e-07
2.33638e-08
9.43446e-08
7.0441e-09
6.90485e-08
2.86511e-08
-3.52981e-09
2.10585e-08
-1.12506e-08
4.64639e-08
-2.07745e-08
5.78267e-08
-3.01179e-08
5.74129e-08
-3.76709e-08
4.74291e-08
-4.219e-08
3.00869e-08
-4.27964e-08
7.58767e-09
-3.89759e-08
-1.7905e-08
-3.05715e-08
-4.43038e-08
-1.77665e-08
-6.96506e-08
-1.05626e-09
-9.21714e-08
1.87912e-08
-1.10331e-07
4.07847e-08
-1.22883e-07
6.37701e-08
-1.28917e-07
8.64954e-08
-1.27892e-07
1.07682e-07
-1.19658e-07
1.26095e-07
-1.04464e-07
1.40617e-07
-8.29597e-08
1.50315e-07
-5.61744e-08
1.54504e-07
-2.54891e-08
1.52799e-07
7.40387e-09
1.45163e-07
4.05522e-08
1.31939e-07
7.17971e-08
1.13872e-07
9.88227e-08
9.21246e-08
1.19208e-07
6.8285e-08
1.30481e-07
4.43784e-08
1.30166e-07
2.28982e-08
1.15824e-07
6.87168e-09
8.50739e-08
3.55223e-08
-3.17655e-09
2.42357e-08
-1.01743e-08
5.34622e-08
-1.88286e-08
6.64815e-08
-2.73105e-08
6.58948e-08
-3.41239e-08
5.42424e-08
-3.81098e-08
3.40722e-08
-3.84485e-08
7.92571e-09
-3.46613e-08
-2.1693e-08
-2.66034e-08
-5.23626e-08
-1.44482e-08
-8.18067e-08
1.33925e-09
-1.0796e-07
2.00386e-08
-1.29031e-07
4.0721e-08
-1.43566e-07
6.23046e-08
-1.50501e-07
8.36158e-08
-1.49204e-07
1.03455e-07
-1.39497e-07
1.20665e-07
-1.21674e-07
1.34198e-07
-9.64918e-08
1.43177e-07
-6.51531e-08
1.46958e-07
-2.92703e-08
1.4518e-07
9.1815e-09
1.37808e-07
4.79247e-08
1.25163e-07
8.44423e-08
1.07948e-07
1.16037e-07
8.72619e-08
1.39894e-07
6.46114e-08
1.53131e-07
4.19235e-08
1.52853e-07
2.15751e-08
1.36171e-07
6.44378e-09
1.00205e-07
4.19664e-08
-2.76748e-09
2.70035e-08
-8.89903e-09
5.95939e-08
-1.64978e-08
7.40803e-08
-2.39366e-08
7.33334e-08
-2.98737e-08
6.01792e-08
-3.32652e-08
3.74633e-08
-3.33724e-08
8.03239e-09
-2.97642e-08
-2.53017e-08
-2.23114e-08
-5.98159e-08
-1.11723e-08
-9.29462e-08
3.23098e-09
-1.22363e-07
2.02456e-08
-1.46046e-07
3.90306e-08
-1.62351e-07
5.86064e-08
-1.70077e-07
7.79102e-08
-1.68507e-07
9.58558e-08
-1.57442e-07
1.11394e-07
-1.37211e-07
1.23575e-07
-1.08671e-07
1.31604e-07
-7.31807e-08
1.34895e-07
-3.2561e-08
1.33121e-07
1.09563e-08
1.26248e-07
5.4798e-08
1.14571e-07
9.61205e-08
9.87303e-08
1.31878e-07
7.97341e-08
1.5889e-07
5.89645e-08
1.73901e-07
3.81936e-08
1.73624e-07
1.96054e-08
1.5476e-07
5.8303e-09
1.13981e-07
4.77978e-08
-2.3274e-09
2.9331e-08
-7.50714e-09
6.47734e-08
-1.3935e-08
8.0508e-08
-2.02174e-08
7.96155e-08
-2.51963e-08
6.51579e-08
-2.79674e-08
4.02341e-08
-2.78896e-08
7.95429e-09
-2.45892e-08
-2.86024e-08
-1.79554e-08
-6.64498e-08
-8.12766e-09
-1.02774e-07
4.52491e-09
-1.35016e-07
1.94325e-08
-1.60953e-07
3.5862e-08
-1.7878e-07
5.29593e-08
-1.87173e-07
6.97977e-08
-1.85344e-07
8.54299e-08
-1.73073e-07
9.89407e-08
-1.50721e-07
1.095e-07
-1.19229e-07
1.16414e-07
-8.00928e-08
1.1917e-07
-3.53157e-08
1.17481e-07
1.2647e-08
1.11317e-07
6.0963e-08
1.00937e-07
1.06501e-07
8.69069e-08
1.45909e-07
7.01166e-08
1.75681e-07
5.17886e-08
1.9223e-07
3.3491e-08
1.91923e-07
1.71522e-08
1.711e-07
5.08212e-09
1.26053e-07
5.28811e-08
-1.87202e-09
3.12031e-08
-6.0531e-09
6.89541e-08
-1.12447e-08
8.56995e-08
-1.6307e-08
8.46775e-08
-2.02865e-08
6.91371e-08
-2.24356e-08
4.2383e-08
-2.2224e-08
7.74249e-09
-1.93431e-08
-3.14834e-08
-1.37026e-08
-7.20904e-08
-5.42018e-09
-1.11056e-07
5.19562e-09
-1.45631e-07
1.76699e-08
-1.73427e-07
3.13924e-08
-1.92502e-07
4.56524e-08
-2.01432e-07
5.96788e-08
-1.9937e-07
7.26826e-08
-1.86076e-07
8.39017e-08
-1.61939e-07
9.2644e-08
-1.27971e-07
9.83302e-08
-8.57776e-08
1.00532e-07
-3.75162e-08
9.90079e-08
1.41722e-08
9.37334e-08
6.62385e-08
8.49257e-08
1.1531e-07
7.30619e-08
1.57773e-07
5.88924e-08
1.89852e-07
4.34498e-08
2.07674e-07
2.80581e-08
2.07317e-07
1.43418e-08
1.84819e-07
4.23659e-09
1.3616e-07
5.7118e-08
-1.41125e-09
3.26143e-08
-4.57277e-09
7.2115e-08
-8.49754e-09
8.96239e-08
-1.23113e-08
8.84907e-08
-1.52782e-08
7.21037e-08
-1.68199e-08
4.39243e-08
-1.6526e-08
7.44815e-09
-1.41585e-08
-3.38514e-08
-9.64941e-09
-7.65998e-08
-3.09258e-09
-1.17613e-07
5.26987e-09
-1.53994e-07
1.50665e-08
-1.83224e-07
2.58212e-08
-2.03256e-07
3.69797e-08
-2.12591e-07
4.79404e-08
-2.1033e-07
5.80879e-08
-1.96223e-07
6.68268e-08
-1.70678e-07
7.36161e-08
-1.3476e-07
7.8002e-08
-9.01634e-08
7.9648e-08
-3.91621e-08
7.83638e-08
1.54568e-08
7.4129e-08
7.04736e-08
6.71142e-08
1.22325e-07
5.76965e-08
1.67192e-07
4.64694e-08
2.0108e-07
3.42515e-08
2.19893e-07
2.20915e-08
2.19478e-07
1.12737e-08
1.95637e-07
3.32175e-09
1.44112e-07
6.04389e-08
-9.51287e-10
3.35654e-08
-3.08952e-09
7.42524e-08
-5.74037e-09
9.22742e-08
-8.30093e-09
9.10504e-08
-1.02611e-08
7.4063e-08
-1.12192e-08
4.48816e-08
-1.08908e-08
7.11899e-09
-9.11233e-09
-3.56306e-08
-5.83922e-09
-7.98736e-08
-1.13986e-09
-1.22313e-07
4.81398e-09
-1.59948e-07
1.17603e-08
-1.90171e-07
1.93647e-08
-2.10861e-07
2.72385e-08
-2.20465e-07
3.49597e-08
-2.18052e-07
4.20961e-08
-2.0336e-07
4.82293e-08
-1.76812e-07
5.29783e-08
-1.3951e-07
5.60222e-08
-9.32084e-08
5.71222e-08
-4.02629e-08
5.61416e-08
1.64368e-08
5.30641e-08
7.35507e-08
4.80097e-08
1.27379e-07
4.12463e-08
1.73955e-07
3.31978e-08
2.09128e-07
2.44499e-08
2.28641e-07
1.57538e-08
2.28174e-07
8.02803e-09
2.03363e-07
2.35958e-09
1.49779e-07
6.27975e-08
-4.96029e-10
3.40612e-08
-1.61834e-09
7.53735e-08
-3.00359e-09
9.36585e-08
-4.32203e-09
9.23677e-08
-5.29274e-09
7.50327e-08
-5.6949e-09
4.52827e-08
-5.37307e-09
6.79635e-09
-4.24006e-09
-3.67643e-08
-2.2754e-09
-8.1839e-08
4.78894e-10
-1.25068e-07
3.92407e-09
-1.63393e-07
7.91138e-09
-1.94158e-07
1.22524e-08
-2.15203e-07
1.67293e-08
-2.24942e-07
2.1106e-08
-2.22428e-07
2.51399e-08
-2.07394e-07
2.85953e-08
-1.80268e-07
3.12565e-08
-1.42172e-07
3.29406e-08
-9.48931e-08
3.35094e-08
-4.08322e-08
3.28818e-08
1.70641e-08
3.10453e-08
7.53872e-08
2.80662e-08
1.30359e-07
2.40972e-08
1.77924e-07
1.93835e-08
2.13842e-07
1.4266e-08
2.33758e-07
9.18315e-09
2.33256e-07
4.67232e-09
2.07873e-07
1.36864e-09
1.53082e-07
6.41668e-08
-4.78719e-11
3.41086e-08
-1.68633e-10
7.54928e-08
-3.06392e-10
9.37952e-08
-4.03376e-10
9.24635e-08
-4.08122e-10
7.50365e-08
-2.81432e-10
4.51551e-08
2.11027e-12
6.51229e-09
4.53011e-10
-3.72154e-08
1.06768e-09
-8.2454e-08
1.83086e-09
-1.25831e-07
2.71818e-09
-1.6428e-07
3.69581e-09
-1.95135e-07
4.72305e-09
-2.1623e-07
5.75505e-09
-2.25974e-07
6.74376e-09
-2.23416e-07
7.63892e-09
-2.08288e-07
8.39023e-09
-1.81018e-07
8.94973e-09
-1.42731e-07
9.27418e-09
-9.52168e-08
9.32779e-09
-4.08849e-08
9.08578e-09
1.73073e-08
8.53889e-09
7.59354e-08
7.69815e-09
1.31201e-07
6.59838e-09
1.79025e-07
5.30103e-09
2.15141e-07
3.89575e-09
2.35165e-07
2.50127e-09
2.34652e-07
1.26562e-09
2.09109e-07
3.6552e-10
1.53984e-07
6.45348e-08
3.9184e-10
3.37162e-08
1.25401e-09
7.46292e-08
2.33954e-09
9.27088e-08
3.43767e-09
9.13645e-08
4.37293e-09
7.41008e-08
5.00465e-09
4.45229e-08
5.22933e-09
6.28734e-09
4.98192e-09
-3.69674e-08
4.23549e-09
-8.17071e-08
3.00141e-09
-1.24597e-07
1.32951e-09
-1.62607e-07
-6.99206e-10
-1.93105e-07
-2.97824e-09
-2.1395e-07
-5.38054e-09
-2.23571e-07
-7.76708e-09
-2.2103e-07
-9.99655e-09
-2.06058e-07
-1.19345e-08
-1.79079e-07
-1.34617e-08
-1.41202e-07
-1.4482e-08
-9.41948e-08
-1.49294e-08
-4.04359e-08
-1.47722e-08
1.71519e-08
-1.40165e-08
7.51816e-08
-1.27064e-08
1.29893e-07
-1.09255e-08
1.77246e-07
-8.79632e-09
2.13013e-07
-6.48096e-09
2.32851e-07
-4.1812e-09
2.32353e-07
-2.13862e-09
2.07069e-07
-6.35041e-10
1.52483e-07
6.39017e-08
8.22413e-10
3.28932e-08
2.64611e-09
7.28044e-08
4.92672e-09
9.04276e-08
7.1902e-09
8.91005e-08
9.03912e-09
7.22518e-08
1.01572e-08
4.34047e-08
1.03148e-08
6.12915e-09
9.37367e-09
-3.60259e-08
7.28499e-09
-7.96175e-08
4.08642e-09
-1.214e-07
-9.9919e-11
-1.58422e-07
-5.08021e-09
-1.88125e-07
-1.06032e-08
-2.08427e-07
-1.63735e-08
-2.17801e-07
-2.20693e-08
-2.15335e-07
-2.7362e-08
-2.00766e-07
-3.19361e-08
-1.74505e-07
-3.55085e-08
-1.3763e-07
-3.78466e-08
-9.18565e-08
-3.87839e-08
-3.94981e-08
-3.82335e-08
1.66021e-08
-3.61978e-08
7.31464e-08
-3.27749e-08
1.2647e-07
-2.81636e-08
1.72635e-07
-2.26668e-08
2.07517e-07
-1.66934e-08
2.26878e-07
-1.07598e-08
2.26421e-07
-5.49077e-09
2.01802e-07
-1.62057e-09
1.48615e-07
6.22799e-08
1.24332e-09
3.16496e-08
4.00471e-09
7.00423e-08
7.44873e-09
8.69833e-08
1.08451e-08
8.57034e-08
1.35815e-08
6.95153e-08
1.51729e-08
4.18134e-08
1.52683e-08
6.03252e-09
1.36591e-08
-3.44175e-08
1.02766e-08
-7.62342e-08
5.18463e-09
-1.16308e-07
-1.42548e-09
-1.51813e-07
-9.25158e-09
-1.803e-07
-1.79023e-08
-1.99777e-07
-2.69201e-08
-2.08784e-07
-3.58075e-08
-2.06448e-07
-4.40557e-08
-1.92519e-07
-5.11755e-08
-1.67387e-07
-5.67261e-08
-1.3208e-07
-6.03428e-08
-8.82407e-08
-6.17625e-08
-3.80791e-08
-6.08445e-08
1.56834e-08
-5.75867e-08
6.98878e-08
-5.21382e-08
1.21021e-07
-4.48078e-08
1.65304e-07
-3.60705e-08
1.98779e-07
-2.65719e-08
2.17379e-07
-1.71309e-08
2.1698e-07
-8.74239e-09
1.93414e-07
-2.57973e-09
1.42452e-07
5.96977e-08
1.65376e-09
2.99956e-08
5.32575e-09
6.63696e-08
9.89702e-09
8.24117e-08
1.439e-08
8.12092e-08
1.79871e-08
6.59175e-08
2.00437e-08
3.97573e-08
2.00946e-08
5.98062e-09
1.78644e-08
-3.21891e-08
1.32662e-08
-7.16358e-08
6.39037e-09
-1.09431e-07
-2.50632e-09
-1.42917e-07
-1.302e-08
-1.69787e-07
-2.46273e-08
-1.8817e-07
-3.6717e-08
-1.96694e-07
-4.86254e-08
-1.94539e-07
-5.96745e-08
-1.81469e-07
-6.92112e-08
-1.57849e-07
-7.66457e-08
-1.24645e-07
-8.14889e-08
-8.33971e-08
-8.33859e-08
-3.61817e-08
-8.21441e-08
1.44419e-08
-7.77563e-08
6.55005e-08
-7.04182e-08
1.13683e-07
-6.05407e-08
1.55427e-07
-4.87591e-08
1.86998e-07
-3.59401e-08
2.04561e-07
-2.31864e-08
2.04227e-07
-1.18424e-08
1.82071e-07
-3.4991e-09
1.34107e-07
5.61998e-08
2.05209e-09
2.79433e-08
6.60214e-09
6.18186e-08
1.22569e-08
7.67569e-08
1.78036e-08
7.56613e-08
2.22311e-08
6.14884e-08
2.47474e-08
3.72419e-08
2.47828e-08
5.9459e-09
2.20003e-08
-2.94079e-08
1.62957e-08
-6.5932e-08
7.78527e-09
-1.0092e-07
-3.2126e-09
-1.31917e-07
-1.62006e-08
-1.56799e-07
-3.05343e-08
-1.73836e-07
-4.54609e-08
-1.81767e-07
-6.01638e-08
-1.79835e-07
-7.38086e-08
-1.67822e-07
-8.55914e-08
-1.46065e-07
-9.47854e-08
-1.15449e-07
-1.00787e-07
-7.73939e-08
-1.03155e-07
-3.38115e-08
-1.0165e-07
1.29381e-08
-9.62569e-08
6.01096e-08
-8.72138e-08
1.04642e-07
-7.50228e-08
1.43238e-07
-6.04644e-08
1.72442e-07
-4.46052e-08
1.88704e-07
-2.88064e-08
1.88431e-07
-1.47324e-08
1.67997e-07
-4.36072e-09
1.23736e-07
5.1843e-08
2.43518e-09
2.55079e-08
7.82115e-09
5.64311e-08
1.45021e-08
7.00764e-08
2.1047e-08
6.91166e-08
2.62669e-08
5.62665e-08
2.92363e-08
3.42728e-08
2.9294e-08
5.89029e-09
2.6049e-08
-2.61622e-08
1.93805e-08
-5.9265e-08
9.42762e-09
-9.09676e-08
-3.4343e-09
-1.19054e-07
-1.86237e-08
-1.41608e-07
-3.53887e-08
-1.57072e-07
-5.28512e-08
-1.64306e-07
-7.0058e-08
-1.62629e-07
-8.60356e-08
-1.51845e-07
-9.98453e-08
-1.32255e-07
-1.10638e-07
-1.04657e-07
-1.17708e-07
-7.03246e-08
-1.20537e-07
-3.09826e-08
-1.18841e-07
1.12415e-08
-1.12599e-07
5.38677e-08
-1.02084e-07
9.41264e-08
-8.7877e-08
1.29031e-07
-7.08844e-08
1.55449e-07
-5.2347e-08
1.70167e-07
-3.38511e-08
1.69934e-07
-1.73422e-08
1.51487e-07
-5.14404e-09
1.1154e-07
4.66982e-08
2.79704e-09
2.27108e-08
8.9602e-09
5.02663e-08
1.6587e-08
6.24497e-08
2.40527e-08
6.16534e-08
3.00118e-08
5.0306e-08
3.34227e-08
3.08603e-08
3.35459e-08
5.76743e-09
2.99473e-08
-2.25616e-08
2.24923e-08
-5.18106e-08
1.13381e-08
-7.98157e-08
-3.0917e-09
-1.04626e-07
-2.01424e-08
-1.24558e-07
-3.89701e-08
-1.38244e-07
-5.85907e-08
-1.44685e-07
-7.7936e-08
-1.43284e-07
-9.59144e-08
-1.33868e-07
-1.11473e-07
-1.16698e-07
-1.23659e-07
-9.24718e-08
-1.31677e-07
-6.2307e-08
-1.34946e-07
-2.77148e-08
-1.33141e-07
9.43571e-09
-1.26236e-07
4.69616e-08
-1.1453e-07
8.24197e-08
-9.86703e-08
1.13171e-07
-7.9667e-08
1.36445e-07
-5.89036e-08
1.49402e-07
-3.81506e-08
1.49179e-07
-1.95859e-08
1.32922e-07
-5.82772e-09
9.77841e-08
4.0867e-08
3.12619e-09
1.95853e-08
9.98006e-09
4.34114e-08
1.84366e-08
5.39913e-08
2.67099e-08
5.33829e-08
3.33291e-08
4.36873e-08
3.71579e-08
2.70295e-08
3.73938e-08
5.5293e-09
3.35695e-08
-1.87361e-08
2.55421e-08
-4.37813e-08
1.34825e-08
-6.7756e-08
-2.149e-09
-8.89951e-08
-2.06403e-08
-1.06066e-07
-4.10747e-08
-1.17808e-07
-6.2385e-08
-1.23373e-07
-8.34133e-08
-1.22254e-07
-1.02976e-07
-1.14302e-07
-1.19932e-07
-9.97398e-08
-1.33246e-07
-7.91558e-08
-1.42055e-07
-5.34967e-08
-1.45723e-07
-2.40449e-08
-1.43895e-07
7.60994e-09
-1.36538e-07
3.96067e-08
-1.23972e-07
6.98558e-08
-1.06893e-07
9.60945e-08
-8.63906e-08
1.15944e-07
-6.39548e-08
1.26967e-07
-4.14923e-08
1.26719e-07
-2.1353e-08
1.12787e-07
-6.38133e-09
8.28134e-08
3.44882e-08
3.40199e-09
1.6184e-08
1.0815e-08
3.59995e-08
1.99314e-08
4.48705e-08
2.88479e-08
4.4467e-08
3.60077e-08
3.65294e-08
4.02091e-08
2.28287e-08
4.0605e-08
5.13209e-09
3.67036e-08
-1.48352e-08
2.83585e-08
-3.54346e-08
1.57515e-08
-5.51473e-08
-6.33165e-10
-7.26104e-08
-2.00463e-08
-8.66541e-08
-4.15232e-08
-9.63323e-08
-6.39419e-08
-1.00955e-07
-8.60861e-08
-1.0011e-07
-1.06713e-07
-9.36766e-08
-1.24621e-07
-8.18321e-08
-1.38723e-07
-6.50546e-08
-1.48109e-07
-4.41121e-08
-1.52107e-07
-2.00477e-08
-1.5034e-07
5.84216e-09
-1.42768e-07
3.20343e-08
-1.29724e-07
5.68111e-08
-1.11936e-07
7.83058e-08
-9.05437e-08
9.45504e-08
-6.71038e-08
1.03527e-07
-4.36053e-08
1.0322e-07
-2.24978e-08
9.16797e-08
-6.75492e-09
6.70657e-08
2.77344e-08
3.59017e-09
1.25931e-08
1.13609e-08
2.82327e-08
2.089e-08
3.53378e-08
3.02142e-08
3.51418e-08
3.77382e-08
2.9007e-08
4.2231e-08
1.83377e-08
4.28244e-08
4.53821e-09
3.90148e-08
-1.10281e-08
3.06546e-08
-2.70761e-08
1.79322e-08
-4.24244e-08
1.34197e-09
-5.6019e-08
-1.83535e-08
-6.69578e-08
-4.01731e-08
-7.45124e-08
-6.29759e-08
-7.81524e-08
-8.55258e-08
-7.75604e-08
-1.06559e-07
-7.26429e-08
-1.24856e-07
-6.35353e-08
-1.39308e-07
-5.06027e-08
-1.48986e-07
-3.44334e-08
-1.53205e-07
-1.58287e-08
-1.51575e-07
4.21239e-09
-1.44051e-07
2.45106e-08
-1.30969e-07
4.37286e-08
-1.13067e-07
6.04041e-08
-9.15044e-08
7.29872e-08
-6.78606e-08
7.98833e-08
-4.41467e-08
7.95075e-08
-2.28279e-08
7.03593e-08
-6.88262e-09
5.11223e-08
2.08498e-08
3.63746e-09
8.95274e-09
1.14622e-08
2.04131e-08
2.1047e-08
2.57529e-08
3.04453e-08
2.57425e-08
3.80781e-08
2.13728e-08
4.27287e-08
1.36889e-08
4.35379e-08
3.73165e-09
4.00071e-08
-7.49682e-09
3.19914e-08
-1.90613e-08
1.96776e-08
-3.01113e-08
3.55295e-09
-3.98942e-08
-1.5635e-08
-4.77691e-08
-3.69265e-08
-5.322e-08
-5.9207e-08
-5.58711e-08
-8.12692e-08
-5.54974e-08
-1.01879e-07
-5.20321e-08
-1.19844e-07
-4.55698e-08
-1.34079e-07
-3.6367e-08
-1.43673e-07
-2.48387e-08
-1.4795e-07
-1.15515e-08
-1.46522e-07
2.78502e-09
-1.39339e-07
1.73287e-08
-1.26727e-07
3.11167e-08
-1.0941e-07
4.30874e-08
-8.85267e-08
5.21045e-08
-6.5631e-08
5.69889e-08
-4.26896e-08
5.65666e-08
-2.20893e-08
4.97563e-08
-6.67953e-09
3.57167e-08
1.41715e-08
3.46235e-09
5.48738e-09
1.08987e-08
1.29803e-08
2.00357e-08
1.66161e-08
2.90425e-08
1.67359e-08
3.64225e-08
1.39914e-08
4.10205e-08
9.09015e-09
4.20258e-08
2.72762e-09
3.8971e-08
-4.44011e-09
3.17213e-08
-1.18107e-08
2.04533e-08
-1.88435e-08
5.62308e-09
-2.50644e-08
-1.20735e-08
-3.0073e-08
-3.17459e-08
-3.35477e-08
-5.23624e-08
-3.52547e-08
-7.28062e-08
-3.50539e-08
-9.19358e-08
-3.29028e-08
-1.08646e-07
-2.88596e-08
-1.21931e-07
-2.30826e-08
-1.30941e-07
-1.58286e-08
-1.35043e-07
-7.44985e-09
-1.33869e-07
1.61072e-09
-1.27365e-07
1.08235e-08
-1.15826e-07
1.9577e-08
-9.99271e-08
2.71883e-08
-8.07379e-08
3.29154e-08
-5.97235e-08
3.59741e-08
-3.87312e-08
3.55728e-08
-1.99699e-08
3.09964e-08
-6.02306e-09
2.17655e-08
8.14931e-09
2.95148e-09
2.53431e-09
9.38392e-09
6.54893e-09
1.73883e-08
8.61272e-09
2.53579e-08
8.76743e-09
3.1963e-08
7.38624e-09
3.61792e-08
4.87209e-09
3.72973e-08
1.60803e-09
3.49156e-08
-2.05852e-09
2.89234e-08
-5.8177e-09
1.94771e-08
-9.39625e-09
6.9706e-09
-1.25573e-08
-7.9999e-09
-1.5102e-08
-2.46756e-08
-1.68716e-08
-4.21793e-08
-1.77505e-08
-5.95632e-08
-1.76695e-08
-7.58583e-08
-1.66074e-08
-9.01255e-08
-1.45921e-08
-1.01507e-07
-1.1701e-08
-1.09275e-07
-8.05996e-09
-1.12882e-07
-3.84237e-09
-1.12004e-07
7.32655e-10
-1.06581e-07
5.40099e-09
-9.68577e-08
9.85345e-09
-8.34081e-08
1.37391e-08
-6.71597e-08
1.66674e-08
-4.93983e-08
1.82121e-08
-3.17535e-08
1.79266e-08
-1.61559e-08
1.54033e-08
-4.77773e-09
1.03854e-08
3.37361e-09
1.96949e-09
5.64138e-10
6.60496e-09
1.91423e-09
1.2568e-08
2.64992e-09
1.86003e-08
2.73676e-09
2.36644e-08
2.32464e-09
2.69781e-08
1.5595e-09
2.80153e-08
5.70618e-10
2.64883e-08
-5.3231e-10
2.23264e-08
-1.65622e-09
1.56514e-08
-2.72147e-09
6.75406e-09
-3.66e-09
-3.93294e-09
-4.4151e-09
-1.5863e-08
-4.94166e-09
-2.84069e-08
-5.20683e-09
-4.08858e-08
-5.19087e-09
-5.26058e-08
-4.8876e-09
-6.28935e-08
-4.30471e-09
-7.11308e-08
-3.46381e-09
-7.67907e-08
-2.40029e-09
-7.94704e-08
-1.16309e-09
-7.89239e-08
1.85593e-10
-7.50935e-08
1.57007e-09
-6.81403e-08
2.89998e-09
-5.84715e-08
4.07023e-09
-4.67643e-08
4.95947e-09
-3.39812e-08
5.42813e-09
-2.1372e-08
5.31858e-09
-1.04476e-08
4.47498e-09
-2.84704e-09
2.78274e-09
5.30485e-10
5.64714e-10
2.47892e-09
5.12807e-09
7.86388e-09
1.01883e-08
1.17483e-08
1.23196e-08
1.17878e-08
1.01319e-08
7.41071e-09
3.75102e-09
-6.63749e-10
-5.60508e-09
-1.08116e-08
-1.60022e-08
-2.08896e-08
-2.5194e-08
-2.86575e-08
-3.10576e-08
-3.22206e-08
-3.20349e-08
-3.04645e-08
-2.75642e-08
-2.34939e-08
-1.8535e-08
-1.3107e-08
-7.78472e-09
-3.31083e-09
-5.2806e-10
)
;

boundaryField
{
    floor
    {
        type            calculated;
        value           uniform 0;
    }
    ceiling
    {
        type            calculated;
        value           nonuniform List<scalar> 
30
(
-2.11758e-22
0
0
0
0
0
0
2.11758e-22
0
2.11758e-22
0
-2.11758e-22
0
2.11758e-22
2.11758e-22
-2.11758e-22
0
0
0
0
0
0
0
0
0
0
0
0
0
0
)
;
    }
    fixedWalls
    {
        type            calculated;
        value           uniform 0;
    }
    frontAndBack
    {
        type            empty;
    }
}


// ************************************************************************* //
