/*--------------------------------*- C++ -*----------------------------------*\
| =========                 |                                                 |
| \\      /  F ield         | OpenFOAM: The Open Source CFD Toolbox           |
|  \\    /   O peration     | Version:  2412                                  |
|   \\  /    A nd           | Website:  www.openfoam.com                      |
|    \\/     M anipulation  |                                                 |
\*---------------------------------------------------------------------------*/
FoamFile
{
    version     2.0;
    format      ascii;
    arch        "LSB;label=32;scalar=64";
    class       volVectorField;
    location    "1000";
    object      U;
}
// * * * * * * * * * * * * * * * * * * * * * * * * * * * * * * * * * * * * * //

dimensions      [0 1 -1 0 0 0 0];

internalField   nonuniform List<vector> 
900
(
(-2.22794e-07 -3.6976e-08 0)
(-4.51994e-06 9.12952e-07 0)
(-1.23561e-05 1.46008e-06 0)
(-2.15213e-05 1.56219e-06 0)
(-3.01125e-05 1.35893e-06 0)
(-3.67841e-05 9.59525e-07 0)
(-4.06034e-05 4.48581e-07 0)
(-4.10142e-05 -1.13647e-07 0)
(-3.77789e-05 -6.80542e-07 0)
(-3.0941e-05 -1.21407e-06 0)
(-2.07904e-05 -1.68261e-06 0)
(-7.828e-06 -2.06014e-06 0)
(7.27227e-06 -2.3262e-06 0)
(2.37023e-05 -2.46577e-06 0)
(4.05646e-05 -2.46979e-06 0)
(5.69181e-05 -2.3357e-06 0)
(7.18278e-05 -2.06739e-06 0)
(8.44129e-05 -1.67525e-06 0)
(9.38949e-05 -1.17602e-06 0)
(9.96442e-05 -5.92516e-07 0)
(0.000101222 4.67046e-08 0)
(9.84214e-05 7.07834e-07 0)
(9.12969e-05 1.35218e-06 0)
(8.0204e-05 1.93208e-06 0)
(6.58408e-05 2.38607e-06 0)
(4.93006e-05 2.63206e-06 0)
(3.21345e-05 2.55759e-06 0)
(1.6391e-05 2.02544e-06 0)
(4.56724e-06 9.17427e-07 0)
(-4.6351e-07 -4.94373e-07 0)
(-1.1465e-06 4.22591e-06 0)
(-1.2717e-05 1.1924e-05 0)
(-3.10003e-05 1.61412e-05 0)
(-5.14976e-05 1.66985e-05 0)
(-7.04266e-05 1.43104e-05 0)
(-8.49116e-05 9.77273e-06 0)
(-9.28413e-05 3.82158e-06 0)
(-9.28854e-05 -2.89616e-06 0)
(-8.4433e-05 -9.80896e-06 0)
(-6.75366e-05 -1.64111e-05 0)
(-4.28444e-05 -2.22624e-05 0)
(-1.15221e-05 -2.6992e-05 0)
(2.48358e-05 -3.03033e-05 0)
(6.43019e-05 -3.19805e-05 0)
(0.000104728 -3.18953e-05 0)
(0.00014386 -3.0012e-05 0)
(0.000179458 -2.63886e-05 0)
(0.000209417 -2.11768e-05 0)
(0.00023189 -1.46192e-05 0)
(0.000245395 -7.04403e-06 0)
(0.000248928 1.14156e-06 0)
(0.000242047 9.46057e-06 0)
(0.000224959 1.73722e-05 0)
(0.00019859 2.42622e-05 0)
(0.000164657 2.94332e-05 0)
(0.000125726 3.20985e-05 0)
(8.52615e-05 3.13974e-05 0)
(4.75462e-05 2.65154e-05 0)
(1.76118e-05 1.70379e-05 0)
(1.04674e-06 4.57327e-06 0)
(-1.76368e-06 1.28272e-05 0)
(-1.82813e-05 3.06809e-05 0)
(-4.31153e-05 3.9681e-05 0)
(-7.03809e-05 4.03764e-05 0)
(-9.52418e-05 3.42562e-05 0)
(-0.000113984 2.29937e-05 0)
(-0.000123811 8.23222e-06 0)
(-0.000122915 -8.49463e-06 0)
(-0.000110437 -2.57754e-05 0)
(-8.64229e-05 -4.23307e-05 0)
(-5.17381e-05 -5.7031e-05 0)
(-7.97297e-06 -6.89165e-05 0)
(4.26782e-05 -7.72162e-05 0)
(9.75512e-05 -8.13692e-05 0)
(0.00015367 -8.1043e-05 0)
(0.00020791 -7.6145e-05 0)
(0.000257165 -6.68277e-05 0)
(0.000298524 -5.34874e-05 0)
(0.000329438 -3.6756e-05 0)
(0.000347878 -1.74871e-05 0)
(0.000352482 3.26508e-06 0)
(0.000342683 2.42702e-05 0)
(0.000318812 4.41444e-05 0)
(0.000282188 6.13513e-05 0)
(0.000235185 7.42102e-05 0)
(0.00018127 8.09231e-05 0)
(0.000125 7.96539e-05 0)
(7.1871e-05 6.87692e-05 0)
(2.84093e-05 4.73683e-05 0)
(2.2763e-06 1.69382e-05 0)
(-2.03381e-06 2.35914e-05 0)
(-2.1135e-05 5.37864e-05 0)
(-4.95163e-05 6.82038e-05 0)
(-8.0365e-05 6.8717e-05 0)
(-0.00010822 5.78356e-05 0)
(-0.000128915 3.82564e-05 0)
(-0.000139289 1.26673e-05 0)
(-0.00013728 -1.63537e-05 0)
(-0.000121896 -4.63825e-05 0)
(-9.31795e-05 -7.51901e-05 0)
(-5.21251e-05 -0.00010079 0)
(-5.73731e-07 -0.000121483 0)
(5.89209e-05 -0.0001359 0)
(0.000123252 -0.000143044 0)
(0.000188944 -0.000142324 0)
(0.000252343 -0.000133576 0)
(0.000309823 -0.000117073 0)
(0.000357984 -9.3521e-05 0)
(0.000393856 -6.40454e-05 0)
(0.000415086 -3.01622e-05 0)
(0.000420103 6.2608e-06 0)
(0.000408268 4.30526e-05 0)
(0.000379993 7.77868e-05 0)
(0.000336825 0.000107807 0)
(0.000281509 0.000130271 0)
(0.000217999 0.000142215 0)
(0.000151458 0.000140693 0)
(8.80888e-05 0.000123063 0)
(3.54712e-05 8.74926e-05 0)
(2.98257e-06 3.41318e-05 0)
(-2.07006e-06 3.52456e-05 0)
(-2.19776e-05 7.87985e-05 0)
(-5.15826e-05 9.89225e-05 0)
(-8.3636e-05 9.90215e-05 0)
(-0.000112385 8.27837e-05 0)
(-0.000133459 5.40236e-05 0)
(-0.000143547 1.65454e-05 0)
(-0.000140483 -2.59553e-05 0)
(-0.000123223 -6.9959e-05 0)
(-9.18115e-05 -0.0001122 0)
(-4.7309e-05 -0.000149747 0)
(8.32292e-06 -0.000180081 0)
(7.23554e-05 -0.000201167 0)
(0.000141466 -0.000211521 0)
(0.000211934 -0.000210263 0)
(0.000279847 -0.000197149 0)
(0.000341319 -0.000172586 0)
(0.000392714 -0.000137628 0)
(0.000430855 -9.39525e-05 0)
(0.00045323 -4.38126e-05 0)
(0.00045817 1.00199e-05 0)
(0.000445 6.4334e-05 0)
(0.000414168 0.000115559 0)
(0.000367325 0.000159823 0)
(0.000307382 0.000193032 0)
(0.000238517 0.000210981 0)
(0.000166187 0.00020951 0)
(9.69948e-05 0.000184766 0)
(3.91931e-05 0.000133586 0)
(3.28579e-06 5.41131e-05 0)
(-1.97069e-06 4.68892e-05 0)
(-2.14477e-05 0.000103971 0)
(-5.05644e-05 0.000129858 0)
(-8.20656e-05 0.000129435 0)
(-0.000110188 0.000107615 0)
(-0.000130554 6.93659e-05 0)
(-0.000139851 1.9636e-05 0)
(-0.000135913 -3.67381e-05 0)
(-0.000117701 -9.51173e-05 0)
(-8.52652e-05 -0.000151171 0)
(-3.96791e-05 -0.000200993 0)
(1.70743e-05 -0.000241218 0)
(8.22332e-05 -0.000269115 0)
(0.000152436 -0.000282695 0)
(0.000223914 -0.000280776 0)
(0.000292705 -0.000263031 0)
(0.000354872 -0.000230008 0)
(0.000406733 -0.000183122 0)
(0.000445071 -0.000124624 0)
(0.000467345 -5.75356e-05 0)
(0.000471865 1.44354e-05 0)
(0.000457953 8.70019e-05 0)
(0.000426059 0.000155413 0)
(0.000377851 0.000214547 0)
(0.000316262 0.00025903 0)
(0.000245513 0.000283367 0)
(0.000171132 0.000282105 0)
(9.9871e-05 0.000250039 0)
(4.027e-05 0.00018244 0)
(3.31751e-06 7.52501e-05 0)
(-1.79917e-06 5.79435e-05 0)
(-2.00308e-05 0.000128071 0)
(-4.74514e-05 0.000159548 0)
(-7.71344e-05 0.000158576 0)
(-0.000103542 0.00013124 0)
(-0.000122448 8.36442e-05 0)
(-0.000130658 2.18599e-05 0)
(-0.000126087 -4.81546e-05 0)
(-0.000107737 -0.00012066 0)
(-7.56641e-05 -0.000190279 0)
(-3.09121e-05 -0.000252146 0)
(2.45923e-05 -0.000302056 0)
(8.81664e-05 -0.000336593 0)
(0.000156546 -0.000353266 0)
(0.000226071 -0.000350595 0)
(0.000292891 -0.000328169 0)
(0.000353182 -0.000286673 0)
(0.000403362 -0.000227884 0)
(0.000440308 -0.000154617 0)
(0.000461547 -7.06551e-05 0)
(0.000465438 1.93667e-05 0)
(0.000451318 0.000110099 0)
(0.000419623 0.000195622 0)
(0.000371972 0.000269583 0)
(0.000311221 0.000325331 0)
(0.000241486 0.000356079 0)
(0.00016819 0.00035505 0)
(9.79926e-05 0.000315624 0)
(3.93559e-05 0.000231443 0)
(3.17644e-06 9.63236e-05 0)
(-1.59165e-06 6.8051e-05 0)
(-1.80613e-05 0.000150273 0)
(-4.2968e-05 0.000186977 0)
(-6.99525e-05 0.00018547 0)
(-9.38862e-05 0.000152906 0)
(-0.000110829 9.64512e-05 0)
(-0.000117803 2.32432e-05 0)
(-0.000112863 -5.96947e-05 0)
(-9.50817e-05 -0.000145579 0)
(-6.45182e-05 -0.000228037 0)
(-2.21542e-05 -0.000301292 0)
(3.02025e-05 -0.00036034 0)
(9.00372e-05 -0.000401114 0)
(0.000154291 -0.000420644 0)
(0.000219533 -0.000417164 0)
(0.000282153 -0.000390183 0)
(0.000338565 -0.000340519 0)
(0.000385409 -0.000270287 0)
(0.000419754 -0.000182845 0)
(0.000439279 -8.2699e-05 0)
(0.00044244 2.46332e-05 0)
(0.000428612 0.000132787 0)
(0.000398204 0.00023473 0)
(0.00035274 0.00032292 0)
(0.000294914 0.000389483 0)
(0.000228623 0.000426371 0)
(0.000159017 0.000425508 0)
(9.24457e-05 0.000378878 0)
(3.69691e-05 0.000278556 0)
(2.9262e-06 0.000116447 0)
(-1.36788e-06 7.69983e-05 0)
(-1.57609e-05 0.000170049 0)
(-3.76233e-05 0.000211465 0)
(-6.13238e-05 0.000209455 0)
(-8.22791e-05 0.000172108 0)
(-9.69429e-05 0.000107544 0)
(-0.00010263 2.38763e-05 0)
(-9.75872e-05 -7.08947e-05 0)
(-8.09821e-05 -0.000169025 0)
(-5.28724e-05 -0.000263229 0)
(-1.41504e-05 -0.00034689 0)
(3.35442e-05 -0.00041427 0)
(8.7934e-05 -0.000460705 0)
(0.00014625 -0.000482784 0)
(0.000205385 -0.000478478 0)
(0.000262069 -0.00044722 0)
(0.000313055 -0.000389948 0)
(0.000355297 -0.00030909 0)
(0.000386136 -0.000208502 0)
(0.000403466 -9.33553e-05 0)
(0.000405884 3.00196e-05 0)
(0.00039282 0.000154321 0)
(0.000364646 0.000271481 0)
(0.000322753 0.000372859 0)
(0.000269604 0.00044943 0)
(0.000208773 0.000491965 0)
(0.000144992 0.000491158 0)
(8.4104e-05 0.000437693 0)
(3.35e-05 0.00032221 0)
(2.60688e-06 0.000134975 0)
(-1.13808e-06 8.46637e-05 0)
(-1.32733e-05 0.00018707 0)
(-3.17661e-05 0.000232576 0)
(-5.18156e-05 0.000230107 0)
(-6.94795e-05 0.000188532 0)
(-8.16867e-05 0.000116803 0)
(-8.61074e-05 2.38889e-05 0)
(-8.12207e-05 -8.13418e-05 0)
(-6.63062e-05 -0.000190294 0)
(-4.14193e-05 -0.000294869 0)
(-7.34156e-06 -0.000387709 0)
(3.44941e-05 -0.000462423 0)
(8.21022e-05 -0.000513818 0)
(0.000133068 -0.000538092 0)
(0.000184684 -0.00053298 0)
(0.000234097 -0.000497848 0)
(0.000278474 -0.00043374 0)
(0.00031516 -0.000343361 0)
(0.00034183 -0.000231006 0)
(0.000356641 -0.000102439 0)
(0.000358366 3.52866e-05 0)
(0.000346504 0.000174032 0)
(0.000321381 0.000304803 0)
(0.000284223 0.000417968 0)
(0.000237203 0.000503466 0)
(0.000183479 0.000550993 0)
(0.000127239 0.000550137 0)
(7.36552e-05 0.000490412 0)
(2.92382e-05 0.000361213 0)
(2.24343e-06 0.000151437 0)
(-9.07579e-07 9.09838e-05 0)
(-1.06907e-05 0.00020115 0)
(-2.56313e-05 0.000250055 0)
(-4.18203e-05 0.000247172 0)
(-5.60204e-05 0.000202004 0)
(-6.56951e-05 0.000124193 0)
(-6.89163e-05 2.34316e-05 0)
(-6.44261e-05 -9.06747e-05 0)
(-5.16315e-05 -0.000208805 0)
(-3.05838e-05 -0.000322171 0)
(-1.93795e-06 -0.00042278 0)
(3.31101e-05 -0.00050369 0)
(7.29071e-05 -0.000559254 0)
(0.000115444 -0.000585339 0)
(0.000158467 -0.000579479 0)
(0.000199601 -0.000540982 0)
(0.000236489 -0.000470981 0)
(0.000266915 -0.000372414 0)
(0.000288943 -0.000249952 0)
(0.000301032 -0.000109861 0)
(0.000302154 4.01866e-05 0)
(0.000291887 0.000191334 0)
(0.000270506 0.00033379 0)
(0.000239041 0.000457065 0)
(0.000199324 0.0005502 0)
(0.000154021 0.00060196 0)
(0.000106672 0.000600973 0)
(6.16404e-05 0.000535756 0)
(2.44003e-05 0.000394663 0)
(1.8512e-06 0.000165492 0)
(-6.7914e-07 9.59312e-05 0)
(-8.07176e-06 0.000212197 0)
(-1.93752e-05 0.000263768 0)
(-3.1605e-05 0.000260522 0)
(-4.2269e-05 0.000212451 0)
(-4.94051e-05 0.000129739 0)
(-5.15203e-05 2.26611e-05 0)
(-4.7642e-05 -9.85853e-05 0)
(-3.73154e-05 -0.000224094 0)
(-2.05876e-05 -0.00034452 0)
(2.02571e-06 -0.000451359 0)
(2.95873e-05 -0.000537224 0)
(6.08063e-05 -0.000596106 0)
(9.41159e-05 -0.000623604 0)
(0.000127758 -0.00061709 0)
(0.000159881 -0.000575823 0)
(0.000188644 -0.000501005 0)
(0.000212316 -0.000395765 0)
(0.000229381 -0.000265073 0)
(0.000238632 -0.000115599 0)
(0.000239258 4.44804e-05 0)
(0.000230927 0.000205727 0)
(0.00021385 0.000357697 0)
(0.000188838 0.000489198 0)
(0.000157343 0.000588531 0)
(0.000121475 0.000643698 0)
(8.40383e-05 0.000642537 0)
(4.84904e-05 0.000572761 0)
(1.91513e-05 0.000421896 0)
(1.43946e-06 0.000176892 0)
(-4.54087e-07 9.95011e-05 0)
(-5.45391e-06 0.000220179 0)
(-1.31003e-05 0.000273664 0)
(-2.1348e-05 0.000270113 0)
(-2.84716e-05 0.000219865 0)
(-3.31081e-05 0.000133503 0)
(-3.4221e-05 2.17279e-05 0)
(-3.11379e-05 -0.00010482 0)
(-2.35498e-05 -0.000235799 0)
(-1.14985e-05 -0.00036145 0)
(4.64754e-06 -0.000472893 0)
(2.42258e-05 -0.000562408 0)
(4.63277e-05 -0.000623719 0)
(6.98541e-05 -0.000652226 0)
(9.35725e-05 -0.00064518 0)
(0.000116184 -0.000601804 0)
(0.000136394 -0.000523352 0)
(0.000152986 -0.000413088 0)
(0.00016489 -0.000276205 0)
(0.000171251 -0.000119674 0)
(0.000171492 4.79558e-05 0)
(0.000165368 0.000216806 0)
(0.000153028 0.000375941 0)
(0.000135043 0.000513635 0)
(0.000112447 0.000617627 0)
(8.67505e-05 0.000675333 0)
(5.99617e-05 0.000673999 0)
(3.45561e-05 0.000600729 0)
(1.36216e-05 0.000442437 0)
(1.01437e-06 0.000185466 0)
(-2.33075e-07 0.000101703 0)
(-2.86072e-06 0.000225103 0)
(-6.87299e-06 0.000279751 0)
(-1.11654e-05 0.000275961 0)
(-1.4788e-05 0.000224288 0)
(-1.69896e-05 0.000135565 0)
(-1.72012e-05 2.07679e-05 0)
(-1.50585e-05 -0.000109179 0)
(-1.04024e-05 -0.000243655 0)
(-3.26916e-06 -0.000372637 0)
(6.1256e-06 -0.000487002 0)
(1.74041e-05 -0.000578823 0)
(3.00526e-05 -0.000641654 0)
(4.34538e-05 -0.000670767 0)
(5.69181e-05 -0.000663336 0)
(6.97178e-05 -0.000618562 0)
(8.11253e-05 -0.000537728 0)
(9.04539e-05 -0.000424183 0)
(9.70961e-05 -0.00028326 0)
(0.000100561 -0.000122122 0)
(0.000100512 5.04427e-05 0)
(9.6798e-05 0.000224271 0)
(8.94941e-05 0.000388103 0)
(7.89237e-05 0.000529858 0)
(6.56805e-05 0.000636903 0)
(5.06408e-05 0.000696266 0)
(3.49761e-05 0.000694794 0)
(2.01332e-05 0.000619193 0)
(7.92036e-06 0.00045598 0)
(5.81665e-07 0.000191108 0)
(-1.64343e-08 0.000102555 0)
(-3.06742e-07 0.000227005 0)
(-7.34974e-07 0.00028207 0)
(-1.1306e-06 0.000278117 0)
(-1.31791e-06 0.000225784 0)
(-1.15962e-06 0.00013601 0)
(-5.5763e-07 1.98927e-05 0)
(5.42136e-07 -0.000111521 0)
(2.14887e-06 -0.00024749 0)
(4.23204e-06 -0.000377878 0)
(6.73145e-06 -0.000493462 0)
(9.55925e-06 -0.000586231 0)
(1.26012e-05 -0.000649667 0)
(1.57276e-05 -0.000678988 0)
(1.87985e-05 -0.000671338 0)
(2.16651e-05 -0.000625906 0)
(2.41747e-05 -0.000543985 0)
(2.61781e-05 -0.000428958 0)
(2.75365e-05 -0.000286211 0)
(2.8129e-05 -0.000122988 0)
(2.78617e-05 5.18209e-05 0)
(2.66796e-05 0.000227926 0)
(2.45824e-05 0.000393918 0)
(2.16363e-05 0.000537551 0)
(1.79842e-05 0.00064601 0)
(1.38517e-05 0.000706139 0)
(9.55222e-06 0.000704594 0)
(5.48064e-06 0.00062789 0)
(2.14322e-06 0.000462354 0)
(1.47896e-07 0.000193761 0)
(1.95881e-07 0.000102081 0)
(2.1997e-06 0.000225936 0)
(5.2885e-06 0.000280688 0)
(8.71164e-06 0.000276654 0)
(1.18796e-05 0.000224429 0)
(1.4322e-05 0.000134918 0)
(1.56702e-05 1.91821e-05 0)
(1.56712e-05 -0.000111766 0)
(1.41874e-05 -0.000247225 0)
(1.11947e-05 -0.000377098 0)
(6.78763e-06 -0.000492202 0)
(1.16779e-06 -0.000584564 0)
(-5.37993e-06 -0.000647696 0)
(-1.25003e-05 -0.000676838 0)
(-1.97872e-05 -0.000669144 0)
(-2.6813e-05 -0.000623807 0)
(-3.31575e-05 -0.00054211 0)
(-3.84342e-05 -0.000427415 0)
(-4.23147e-05 -0.000285082 0)
(-4.45512e-05 -0.000122319 0)
(-4.49943e-05 5.20208e-05 0)
(-4.36048e-05 0.000227679 0)
(-4.04573e-05 0.000393275 0)
(-3.57432e-05 0.000536584 0)
(-2.97712e-05 0.000644813 0)
(-2.2968e-05 0.000704821 0)
(-1.58804e-05 0.000703283 0)
(-9.16699e-06 0.000626729 0)
(-3.6242e-06 0.000461506 0)
(-2.81154e-07 0.000193409 0)
(4.0423e-07 0.000100308 0)
(4.6539e-06 0.000221957 0)
(1.11814e-05 0.000275685 0)
(1.83324e-05 0.000271658 0)
(2.4768e-05 0.000220304 0)
(2.94243e-05 0.000132352 0)
(3.14764e-05 1.86782e-05 0)
(3.03718e-05 -0.000109898 0)
(2.58321e-05 -0.000242873 0)
(1.78419e-05 -0.000370339 0)
(6.64617e-06 -0.000483291 0)
(-7.27038e-06 -0.000573915 0)
(-2.32299e-05 -0.000635852 0)
(-4.04011e-05 -0.000664436 0)
(-5.78442e-05 -0.00065688 0)
(-7.45683e-05 -0.000612387 0)
(-8.95925e-05 -0.000532213 0)
(-0.000102005 -0.00041965 0)
(-0.00011102 -0.000279944 0)
(-0.000116027 -0.000120158 0)
(-0.000116639 5.10243e-05 0)
(-0.000112721 0.000223538 0)
(-0.000104421 0.000386204 0)
(-9.21819e-05 0.00052701 0)
(-7.67531e-05 0.000633379 0)
(-5.92007e-05 0.00069239 0)
(-4.09148e-05 0.000690938 0)
(-2.35895e-05 0.00061578 0)
(-9.30527e-06 0.000453485 0)
(-7.03434e-07 0.000190068 0)
(6.09037e-07 9.72621e-05 0)
(7.05206e-06 0.000215136 0)
(1.69298e-05 0.00026715 0)
(2.77071e-05 0.000263219 0)
(3.7317e-05 0.000213485 0)
(4.4124e-05 0.000128359 0)
(4.68651e-05 1.83833e-05 0)
(4.46987e-05 -0.000105967 0)
(3.72133e-05 -0.000234537 0)
(2.4406e-05 -0.000357759 0)
(6.66729e-06 -0.000466936 0)
(-1.52479e-05 -0.000554529 0)
(-4.02822e-05 -0.000614404 0)
(-6.71444e-05 -0.000642065 0)
(-9.43806e-05 -0.000634821 0)
(-0.000120459 -0.000591902 0)
(-0.000143861 -0.000514515 0)
(-0.00016317 -0.000405829 0)
(-0.000177157 -0.0002709 0)
(-0.000184863 -0.00011654 0)
(-0.000185669 4.88734e-05 0)
(-0.00017935 0.000215619 0)
(-0.000166119 0.000372891 0)
(-0.000146657 0.000509068 0)
(-0.000122136 0.000611983 0)
(-9.42325e-05 0.000669132 0)
(-6.51472e-05 0.000667835 0)
(-3.75701e-05 0.000595274 0)
(-1.48269e-05 0.000438446 0)
(-1.1199e-06 0.000183797 0)
(8.10597e-07 9.29742e-05 0)
(9.38866e-06 0.000205546 0)
(2.25152e-05 0.000255181 0)
(3.6803e-05 0.000251438 0)
(4.94854e-05 0.000204048 0)
(5.83842e-05 0.000122967 0)
(6.18244e-05 1.82623e-05 0)
(5.86916e-05 -0.000100083 0)
(4.84475e-05 -0.000222409 0)
(3.11059e-05 -0.000339625 0)
(7.19838e-06 -0.000443474 0)
(-2.22668e-05 -0.000526799 0)
(-5.58757e-05 -0.000583783 0)
(-9.19015e-05 -0.000610165 0)
(-0.000128404 -0.000603394 0)
(-0.000163342 -0.000562738 0)
(-0.000194689 -0.000489335 0)
(-0.000220553 -0.000386187 0)
(-0.000239288 -0.000258082 0)
(-0.000249604 -0.000111478 0)
(-0.000250663 4.56779e-05 0)
(-0.000242148 0.000204153 0)
(-0.000224332 0.000353673 0)
(-0.000198117 0.000483187 0)
(-0.000165066 0.000581115 0)
(-0.000127426 0.00063556 0)
(-8.81558e-05 0.000634457 0)
(-5.08816e-05 0.000565616 0)
(-2.01091e-05 0.000416668 0)
(-1.52787e-06 0.000174706 0)
(1.00905e-06 8.74755e-05 0)
(1.16534e-05 0.000193272 0)
(2.79054e-05 0.000239894 0)
(4.55644e-05 0.000236427 0)
(6.12004e-05 0.000192072 0)
(7.21288e-05 0.000116196 0)
(7.62976e-05 1.82471e-05 0)
(7.23429e-05 -9.24206e-05 0)
(5.96074e-05 -0.000206771 0)
(3.81207e-05 -0.000316323 0)
(8.55064e-06 -0.000413382 0)
(-2.78591e-05 -0.000491276 0)
(-6.93685e-05 -0.000544586 0)
(-0.000113851 -0.000569348 0)
(-0.000158918 -0.000563189 0)
(-0.000202058 -0.000525426 0)
(-0.000240777 -0.000457115 0)
(-0.000272744 -0.000361042 0)
(-0.000295931 -0.000241661 0)
(-0.000308744 -0.000104979 0)
(-0.000310135 4.16018e-05 0)
(-0.000299705 0.000189472 0)
(-0.000277774 0.00032904 0)
(-0.000245443 0.000449982 0)
(-0.000204627 0.000541474 0)
(-0.00015809 0.000592401 0)
(-0.000109477 0.000591496 0)
(-6.32689e-05 0.000527389 0)
(-2.50541e-05 0.000388552 0)
(-1.91667e-06 0.000162947 0)
(1.20432e-06 8.08038e-05 0)
(1.38267e-05 0.00017842 0)
(3.30432e-05 0.000221433 0)
(5.38911e-05 0.000218332 0)
(7.23293e-05 0.000177655 0)
(8.52104e-05 0.000108058 0)
(9.01467e-05 1.82373e-05 0)
(8.55579e-05 -8.32122e-05 0)
(7.06802e-05 -0.000188002 0)
(4.55534e-05 -0.000288371 0)
(1.09703e-05 -0.000377293 0)
(-3.16105e-05 -0.000448684 0)
(-8.01571e-05 -0.000497597 0)
(-0.00013219 -0.000520419 0)
(-0.000184921 -0.000514985 0)
(-0.000235419 -0.000480674 0)
(-0.000280775 -0.000418443 0)
(-0.000318267 -0.000330827 0)
(-0.000345523 -0.00022188 0)
(-0.000360675 -9.70734e-05 0)
(-0.000362492 3.68378e-05 0)
(-0.000350492 0.00017199 0)
(-0.000325038 0.000299608 0)
(-0.000287397 0.000410236 0)
(-0.000239794 0.000493961 0)
(-0.000185439 0.000540601 0)
(-0.000128575 0.000539857 0)
(-7.44285e-05 0.000481357 0)
(-2.95453e-05 0.000354621 0)
(-2.27649e-06 0.000148706 0)
(1.39542e-06 7.30104e-05 0)
(1.58727e-05 0.000161133 0)
(3.78286e-05 0.000199997 0)
(6.16106e-05 0.000197347 0)
(8.264e-05 0.000160928 0)
(9.73649e-05 9.85691e-05 0)
(0.000103107 1.81014e-05 0)
(9.81073e-05 -7.2757e-05 0)
(8.15178e-05 -0.000166579 0)
(5.33838e-05 -0.000256421 0)
(1.46007e-05 -0.000336015 0)
(-3.31864e-05 -0.000399943 0)
(-8.7694e-05 -0.000443807 0)
(-0.000146141 -0.000464388 0)
(-0.000205406 -0.000459762 0)
(-0.000262201 -0.000429371 0)
(-0.000313264 -0.000374066 0)
(-0.000355541 -0.000296093 0)
(-0.000386369 -0.000199054 0)
(-0.000403644 -8.78135e-05 0)
(-0.000405974 3.16134e-05 0)
(-0.000392808 0.000152212 0)
(-0.000364537 0.000266138 0)
(-0.000322568 0.00036493 0)
(-0.000269378 0.000439709 0)
(-0.000208546 0.000481365 0)
(-0.000144804 0.000480704 0)
(-8.39867e-05 0.000428517 0)
(-3.34449e-05 0.000315561 0)
(-2.60747e-06 0.000132228 0)
(1.57834e-06 6.41714e-05 0)
(1.77245e-05 0.000141619 0)
(4.20926e-05 0.000175862 0)
(6.84397e-05 0.000173742 0)
(9.17522e-05 0.000142083 0)
(0.000108153 8.77744e-05 0)
(0.000114727 1.76912e-05 0)
(0.000109573 -6.14171e-05 0)
(9.17838e-05 -0.000143082 0)
(6.14139e-05 -0.000221264 0)
(1.94347e-05 -0.000290527 0)
(-3.23654e-05 -0.000346184 0)
(-9.15029e-05 -0.000384433 0)
(-0.00015496 -0.0004025 0)
(-0.000219352 -0.00039872 0)
(-0.000281118 -0.000372611 0)
(-0.000336718 -0.000324899 0)
(-0.000382841 -0.00025752 0)
(-0.000416592 -0.000173576 0)
(-0.000435682 -7.72692e-05 0)
(-0.000438591 2.62001e-05 0)
(-0.000424709 0.00013075 0)
(-0.000394444 0.000229564 0)
(-0.000349309 0.000315271 0)
(-0.000291972 0.000380131 0)
(-0.000226291 0.000416209 0)
(-0.000157363 0.000415526 0)
(-9.14682e-05 0.000370162 0)
(-3.65681e-05 0.000272281 0)
(-2.90152e-06 0.000113877 0)
(1.7432e-06 5.4407e-05 0)
(1.92645e-05 0.000120193 0)
(4.55597e-05 0.000149436 0)
(7.39381e-05 0.000147912 0)
(9.90817e-05 0.000121406 0)
(0.000116893 7.57761e-05 0)
(0.000124292 1.68653e-05 0)
(0.000119272 -4.96123e-05 0)
(0.000100888 -0.000118212 0)
(6.92071e-05 -0.00018387 0)
(2.52538e-05 -0.000242038 0)
(-2.9091e-05 -0.000288803 0)
(-9.12137e-05 -0.000321002 0)
(-0.00015794 -0.000336324 0)
(-0.000225713 -0.000333389 0)
(-0.000290792 -0.000311791 0)
(-0.000349459 -0.00027213 0)
(-0.000398231 -0.000216009 0)
(-0.000434061 -0.000146004 0)
(-0.000454534 -6.56066e-05 0)
(-0.000458041 2.08459e-05 0)
(-0.000443925 0.000108269 0)
(-0.000412605 0.000190941 0)
(-0.000365659 0.000262658 0)
(-0.000305879 0.00031689 0)
(-0.000237302 0.000346945 0)
(-0.000165247 0.000346129 0)
(-9.62591e-05 0.000307893 0)
(-3.86481e-05 0.000225925 0)
(-3.12509e-06 9.41036e-05 0)
(1.87137e-06 4.39123e-05 0)
(2.02994e-05 9.73348e-05 0)
(4.78006e-05 0.000121325 0)
(7.74463e-05 0.000120434 0)
(0.000103772 9.93221e-05 0)
(0.000122586 6.27546e-05 0)
(0.000130729 1.54933e-05 0)
(0.000126148 -3.78256e-05 0)
(0.000107877 -9.28148e-05 0)
(7.59939e-05 -0.000145424 0)
(3.15502e-05 -0.000192028 0)
(-2.35378e-05 -0.000229518 0)
(-8.66113e-05 -0.000255385 0)
(-0.000154442 -0.000267798 0)
(-0.000223415 -0.000265664 0)
(-0.000289728 -0.00024866 0)
(-0.000349603 -0.000217257 0)
(-0.000399495 -0.000172717 0)
(-0.000436302 -0.000117074 0)
(-0.000457556 -5.30915e-05 0)
(-0.000461607 1.57871e-05 0)
(-0.00044777 8.55082e-05 0)
(-0.00041646 0.000151488 0)
(-0.000369274 0.000208732 0)
(-0.000309052 0.00025196 0)
(-0.000239895 0.000275757 0)
(-0.000167197 0.000274731 0)
(-9.75621e-05 0.000243718 0)
(-3.93241e-05 0.000177998 0)
(-3.23864e-06 7.35106e-05 0)
(1.9312e-06 3.30067e-05 0)
(2.05324e-05 7.37732e-05 0)
(4.81816e-05 9.24205e-05 0)
(7.80087e-05 9.21394e-05 0)
(0.000104597 7.64477e-05 0)
(0.000123802 4.90085e-05 0)
(0.0001325 1.34825e-05 0)
(0.000128657 -2.65875e-05 0)
(0.00011132 -6.78781e-05 0)
(8.05696e-05 -0.000107351 0)
(3.74457e-05 -0.000142308 0)
(-1.61684e-05 -0.000170443 0)
(-7.76703e-05 -0.000189899 0)
(-0.000143904 -0.000199323 0)
(-0.000211339 -0.000197905 0)
(-0.000276263 -0.000185405 0)
(-0.000334986 -0.000162166 0)
(-0.00038404 -0.000129115 0)
(-0.000420384 -8.77502e-05 0)
(-0.000441594 -4.01123e-05 0)
(-0.000446035 1.12465e-05 0)
(-0.00043302 6.33049e-05 0)
(-0.000402937 0.000112623 0)
(-0.000357347 0.000155424 0)
(-0.000299037 0.000187687 0)
(-0.000232047 0.000205263 0)
(-0.000161674 0.000204032 0)
(-9.43538e-05 0.000180156 0)
(-3.81109e-05 0.000130455 0)
(-3.19369e-06 5.29568e-05 0)
(1.86341e-06 2.22201e-05 0)
(1.95255e-05 5.05982e-05 0)
(4.58191e-05 6.39916e-05 0)
(7.43125e-05 6.42133e-05 0)
(9.98803e-05 5.36914e-05 0)
(0.000118584 3.50327e-05 0)
(0.000127467 1.08236e-05 0)
(0.000124616 -1.64675e-05 0)
(0.000109141 -4.45548e-05 0)
(8.11246e-05 -7.13734e-05 0)
(4.15425e-05 -9.5107e-05 0)
(-7.84616e-06 -0.000114215 0)
(-6.46243e-05 -0.00012746 0)
(-0.000125867 -0.00013394 0)
(-0.000188309 -0.000133115 0)
(-0.000248515 -0.000124825 0)
(-0.000303071 -0.000109293 0)
(-0.000348764 -8.71315e-05 0)
(-0.000382767 -5.93334e-05 0)
(-0.000402816 -2.72561e-05 0)
(-0.000407371 7.39546e-06 0)
(-0.000395767 4.25895e-05 0)
(-0.000368341 7.59901e-05 0)
(-0.000326533 0.000105005 0)
(-0.000272954 0.000126839 0)
(-0.000211405 0.000138566 0)
(-0.000146884 0.000137266 0)
(-8.54119e-05 0.000120289 0)
(-3.43669e-05 8.57548e-05 0)
(-2.8868e-06 3.36045e-05 0)
(1.57564e-06 1.23508e-05 0)
(1.66896e-05 2.93232e-05 0)
(3.95879e-05 3.77254e-05 0)
(6.46769e-05 3.82147e-05 0)
(8.74144e-05 3.22743e-05 0)
(0.000104294 2.15371e-05 0)
(0.000112708 7.5875e-06 0)
(0.000111001 -8.10846e-06 0)
(9.84208e-05 -2.42251e-05 0)
(7.50543e-05 -3.95841e-05 0)
(4.17521e-05 -5.31601e-05 0)
(2.68589e-08 -6.40905e-05 0)
(-4.80577e-05 -7.16851e-05 0)
(-0.000100013 -7.54419e-05 0)
(-0.000153064 -7.50598e-05 0)
(-0.0002043 -7.04475e-05 0)
(-0.000250819 -6.17276e-05 0)
(-0.000289889 -4.92376e-05 0)
(-0.000319094 -3.35266e-05 0)
(-0.000336487 -1.53491e-05 0)
(-0.000340728 4.34253e-06 0)
(-0.000331212 2.44039e-05 0)
(-0.000308191 4.35026e-05 0)
(-0.000272873 6.01367e-05 0)
(-0.000227502 7.26522e-05 0)
(-0.000175396 7.92724e-05 0)
(-0.000120958 7.81752e-05 0)
(-6.95118e-05 6.7725e-05 0)
(-2.74237e-05 4.69236e-05 0)
(-2.18656e-06 1.6994e-05 0)
(9.04421e-07 4.7594e-06 0)
(1.13957e-05 1.22957e-05 0)
(2.82506e-05 1.62493e-05 0)
(4.71177e-05 1.66811e-05 0)
(6.44325e-05 1.43367e-05 0)
(7.74823e-05 9.99665e-06 0)
(8.43076e-05 4.3716e-06 0)
(8.37035e-05 -1.92086e-06 0)
(7.51492e-05 -8.34777e-06 0)
(5.87386e-05 -1.44486e-05 0)
(3.51094e-05 -1.98285e-05 0)
(5.36682e-06 -2.41579e-05 0)
(-2.89983e-05 -2.71747e-05 0)
(-6.61977e-05 -2.8688e-05 0)
(-0.000104245 -2.85833e-05 0)
(-0.000141054 -2.6825e-05 0)
(-0.000174548 -2.34582e-05 0)
(-0.000202764 -1.86091e-05 0)
(-0.000223958 -1.24841e-05 0)
(-0.000236711 -5.36803e-06 0)
(-0.000240027 2.37711e-06 0)
(-0.000233426 1.03118e-05 0)
(-0.000217043 1.79143e-05 0)
(-0.000191711 2.45823e-05 0)
(-0.000159042 2.96282e-05 0)
(-0.000121488 3.22745e-05 0)
(-8.23763e-05 3.16692e-05 0)
(-4.58682e-05 2.70027e-05 0)
(-1.6894e-05 1.77651e-05 0)
(-9.34531e-07 5.24016e-06 0)
(-2.65166e-08 5.31394e-07 0)
(3.79959e-06 1.57805e-06 0)
(1.11312e-05 2.08384e-06 0)
(1.9624e-05 2.16135e-06 0)
(2.75167e-05 1.9528e-06 0)
(3.35502e-05 1.56544e-06 0)
(3.68686e-05 1.08068e-06 0)
(3.69765e-05 5.56099e-07 0)
(3.36811e-05 3.39593e-08 0)
(2.70477e-05 -4.52912e-07 0)
(1.73629e-05 -8.77588e-07 0)
(5.10059e-06 -1.21812e-06 0)
(-9.11295e-06 -1.45722e-06 0)
(-2.45334e-05 -1.58221e-06 0)
(-4.03375e-05 -1.58537e-06 0)
(-5.56621e-05 -1.46418e-06 0)
(-6.96466e-05 -1.22119e-06 0)
(-8.14745e-05 -8.642e-07 0)
(-9.04149e-05 -4.06289e-07 0)
(-9.58641e-05 1.3417e-07 0)
(-9.73841e-05 7.33515e-07 0)
(-9.47436e-05 1.36209e-06 0)
(-8.79601e-05 1.98199e-06 0)
(-7.73452e-05 2.54572e-06 0)
(-6.35494e-05 2.99209e-06 0)
(-4.7613e-05 3.23941e-06 0)
(-3.10163e-05 3.17744e-06 0)
(-1.5746e-05 2.6757e-06 0)
(-4.26801e-06 1.58651e-06 0)
(5.50585e-07 9.31784e-09 0)
)
;

boundaryField
{
    floor
    {
        type            noSlip;
    }
    ceiling
    {
        type            noSlip;
    }
    fixedWalls
    {
        type            noSlip;
    }
    frontAndBack
    {
        type            empty;
    }
}


// ************************************************************************* //
