/*--------------------------------*- C++ -*----------------------------------*\
| =========                 |                                                 |
| \\      /  F ield         | OpenFOAM: The Open Source CFD Toolbox           |
|  \\    /   O peration     | Version:  2412                                  |
|   \\  /    A nd           | Website:  www.openfoam.com                      |
|    \\/     M anipulation  |                                                 |
\*---------------------------------------------------------------------------*/
FoamFile
{
    version     2.0;
    format      ascii;
    arch        "LSB;label=32;scalar=64";
    class       volScalarField;
    location    "500";
    object      p;
}
// * * * * * * * * * * * * * * * * * * * * * * * * * * * * * * * * * * * * * //

dimensions      [0 2 -2 0 0 0 0];

internalField   nonuniform List<scalar> 
40000
(
0
-2.12149e-06
-3.61869e-06
-3.74255e-06
-2.21059e-06
9.75282e-07
5.65336e-06
1.1595e-05
1.85506e-05
2.62671e-05
3.45187e-05
4.30963e-05
5.18273e-05
6.05603e-05
6.91746e-05
7.75736e-05
8.56864e-05
9.34576e-05
0.00010085
0.00010784
0.000114418
0.00012058
0.000126334
0.00013169
0.000136663
0.000141272
0.000145537
0.000149479
0.000153119
0.000156479
0.000159579
0.000162441
0.000165082
0.00016752
0.000169774
0.000171856
0.000173782
0.000175567
0.00017722
0.000178755
0.000180179
0.000181506
0.000182739
0.000183887
0.00018496
0.00018596
0.000186896
0.000187774
0.000188595
0.000189364
0.000190086
0.000190765
0.000191404
0.000192004
0.00019257
0.000193103
0.000193606
0.000194081
0.000194529
0.000194953
0.000195353
0.000195731
0.000196089
0.000196427
0.000196747
0.00019705
0.000197337
0.000197609
0.000197866
0.000198108
0.000198337
0.000198555
0.000198761
0.000198955
0.000199138
0.00019931
0.000199472
0.000199625
0.000199769
0.000199904
0.00020003
0.000200148
0.000200257
0.000200359
0.000200452
0.000200539
0.000200619
0.000200692
0.000200757
0.000200816
0.000200868
0.000200914
0.000200953
0.000200986
0.000201013
0.000201034
0.000201048
0.000201056
0.000201058
0.000201054
0.000201043
0.000201027
0.000201005
0.000200977
0.000200942
0.000200901
0.000200854
0.000200801
0.000200741
0.000200675
0.000200602
0.000200522
0.000200435
0.000200341
0.000200241
0.000200132
0.000200015
0.00019989
0.000199757
0.000199615
0.000199465
0.000199305
0.000199136
0.000198956
0.000198766
0.000198565
0.000198352
0.000198128
0.000197891
0.00019764
0.000197377
0.000197099
0.000196805
0.000196496
0.00019617
0.000195825
0.000195462
0.000195078
0.000194674
0.000194248
0.000193798
0.000193322
0.000192819
0.000192286
0.000191722
0.000191124
0.000190491
0.00018982
0.000189107
0.00018835
0.000187544
0.000186686
0.000185771
0.000184794
0.00018375
0.000182635
0.000181442
0.000180163
0.000178792
0.000177319
0.000175735
0.000174031
0.000172195
0.000170214
0.000168075
0.000165764
0.000163265
0.000160561
0.000157634
0.000154463
0.000151028
0.000147308
0.000143279
0.000138919
0.000134204
0.000129112
0.000123621
0.000117711
0.000111367
0.000104576
9.73351e-05
8.96467e-05
8.15246e-05
7.29953e-05
6.41011e-05
5.49029e-05
4.54839e-05
3.59507e-05
2.64367e-05
1.71053e-05
8.1499e-06
-2.04651e-07
-7.70765e-06
-1.409e-05
-1.90816e-05
-2.24391e-05
-2.39962e-05
-2.37607e-05
-2.20576e-05
-1.96963e-05
-0.00024272
-0.000244982
-0.000246199
-0.000246051
-0.000244456
-0.000241428
-0.000237096
-0.000231639
-0.000225257
-0.000218159
-0.000210538
-0.000202575
-0.000194426
-0.000186225
-0.000178086
-0.000170104
-0.000162349
-0.000154877
-0.000147727
-0.000140928
-0.000134496
-0.000128439
-0.000122757
-0.000117441
-0.000112484
-0.000107871
-0.000103586
-9.96115e-05
-9.59288e-05
-9.25195e-05
-8.93649e-05
-8.64475e-05
-8.37499e-05
-8.12543e-05
-7.89453e-05
-7.68081e-05
-7.48287e-05
-7.29942e-05
-7.12935e-05
-6.97154e-05
-6.82489e-05
-6.6886e-05
-6.5617e-05
-6.44344e-05
-6.3332e-05
-6.23033e-05
-6.1342e-05
-6.04422e-05
-5.95995e-05
-5.88097e-05
-5.80696e-05
-5.7375e-05
-5.67219e-05
-5.61069e-05
-5.55282e-05
-5.49835e-05
-5.44702e-05
-5.3986e-05
-5.35291e-05
-5.30978e-05
-5.26904e-05
-5.23051e-05
-5.19405e-05
-5.15959e-05
-5.12705e-05
-5.09631e-05
-5.06722e-05
-5.03965e-05
-5.01355e-05
-4.98889e-05
-4.96561e-05
-4.94361e-05
-4.92278e-05
-4.90309e-05
-4.88453e-05
-4.86707e-05
-4.85066e-05
-4.8352e-05
-4.82066e-05
-4.80701e-05
-4.79424e-05
-4.78233e-05
-4.77123e-05
-4.76095e-05
-4.75148e-05
-4.74277e-05
-4.73473e-05
-4.72735e-05
-4.72065e-05
-4.71469e-05
-4.70945e-05
-4.70486e-05
-4.70092e-05
-4.69761e-05
-4.69491e-05
-4.6928e-05
-4.6913e-05
-4.69043e-05
-4.69022e-05
-4.69066e-05
-4.6917e-05
-4.69337e-05
-4.69564e-05
-4.69851e-05
-4.70197e-05
-4.70604e-05
-4.71078e-05
-4.7162e-05
-4.72227e-05
-4.72895e-05
-4.73628e-05
-4.74431e-05
-4.75306e-05
-4.76256e-05
-4.77279e-05
-4.78377e-05
-4.79556e-05
-4.80818e-05
-4.82166e-05
-4.836e-05
-4.85122e-05
-4.86736e-05
-4.88449e-05
-4.90269e-05
-4.92198e-05
-4.94238e-05
-4.96391e-05
-4.98662e-05
-5.0106e-05
-5.03594e-05
-5.06271e-05
-5.09096e-05
-5.12076e-05
-5.15219e-05
-5.18531e-05
-5.22022e-05
-5.25707e-05
-5.296e-05
-5.33717e-05
-5.38065e-05
-5.42658e-05
-5.4751e-05
-5.52638e-05
-5.58063e-05
-5.63811e-05
-5.69912e-05
-5.76389e-05
-5.83264e-05
-5.90566e-05
-5.98328e-05
-6.0659e-05
-6.15389e-05
-6.24771e-05
-6.34788e-05
-6.455e-05
-6.56963e-05
-6.69235e-05
-6.82386e-05
-6.96496e-05
-7.11653e-05
-7.27952e-05
-7.4549e-05
-7.64374e-05
-7.84728e-05
-8.06689e-05
-8.30398e-05
-8.56006e-05
-8.83674e-05
-9.13573e-05
-9.45889e-05
-9.80816e-05
-0.000101855
-0.000105929
-0.000110323
-0.000115059
-0.000120154
-0.000125625
-0.000131486
-0.00013775
-0.000144421
-0.000151498
-0.000158972
-0.000166823
-0.000175021
-0.00018352
-0.000192258
-0.000201153
-0.000210103
-0.000218982
-0.000227643
-0.000235913
-0.000243598
-0.000250486
-0.000256353
-0.000260982
-0.000264186
-0.000265834
-0.000265919
-0.000264545
-0.000262057
-0.000730224
-0.000733108
-0.000734522
-0.000734431
-0.000732965
-0.000730179
-0.000726204
-0.000721198
-0.000715336
-0.000708793
-0.00070174
-0.000694338
-0.000686725
-0.000679027
-0.000671347
-0.000663775
-0.000656382
-0.000649223
-0.000642341
-0.000635764
-0.000629513
-0.0006236
-0.00061803
-0.000612798
-0.000607901
-0.000603326
-0.000599062
-0.000595094
-0.000591409
-0.000587986
-0.000584813
-0.000581871
-0.000579145
-0.000576619
-0.000574279
-0.000572111
-0.000570099
-0.000568235
-0.000566504
-0.000564897
-0.000563403
-0.000562015
-0.000560722
-0.000559517
-0.000558393
-0.000557344
-0.000556364
-0.000555448
-0.000554591
-0.000553787
-0.000553033
-0.000552326
-0.000551663
-0.000551038
-0.00055045
-0.000549897
-0.000549375
-0.000548883
-0.00054842
-0.000547983
-0.00054757
-0.00054718
-0.000546811
-0.000546462
-0.000546132
-0.00054582
-0.000545526
-0.000545248
-0.000544984
-0.000544735
-0.000544499
-0.000544276
-0.000544066
-0.000543868
-0.000543681
-0.000543504
-0.000543338
-0.000543182
-0.000543036
-0.000542898
-0.000542769
-0.000542649
-0.000542537
-0.000542434
-0.000542338
-0.00054225
-0.000542169
-0.000542095
-0.000542028
-0.000541968
-0.000541914
-0.000541868
-0.000541828
-0.000541794
-0.000541767
-0.000541746
-0.000541732
-0.000541723
-0.000541721
-0.000541725
-0.000541735
-0.000541751
-0.000541774
-0.000541803
-0.000541838
-0.000541879
-0.000541927
-0.000541981
-0.000542042
-0.00054211
-0.000542184
-0.000542265
-0.000542352
-0.000542448
-0.000542551
-0.000542662
-0.000542781
-0.000542908
-0.000543044
-0.000543189
-0.000543343
-0.000543506
-0.000543679
-0.000543862
-0.000544057
-0.000544262
-0.00054448
-0.00054471
-0.000544952
-0.000545208
-0.000545478
-0.000545763
-0.000546064
-0.000546382
-0.000546717
-0.000547071
-0.000547444
-0.000547838
-0.000548254
-0.000548694
-0.000549159
-0.000549652
-0.000550173
-0.000550725
-0.000551308
-0.000551927
-0.000552584
-0.000553282
-0.000554025
-0.000554814
-0.000555656
-0.000556552
-0.000557508
-0.000558529
-0.00055962
-0.000560787
-0.000562038
-0.000563378
-0.000564816
-0.000566359
-0.000568019
-0.000569804
-0.000571726
-0.000573796
-0.000576027
-0.000578433
-0.000581028
-0.000583828
-0.000586848
-0.000590106
-0.000593619
-0.000597406
-0.000601483
-0.000605868
-0.000610578
-0.000615629
-0.000621033
-0.000626801
-0.000632938
-0.000639448
-0.000646323
-0.000653551
-0.000661108
-0.000668961
-0.000677061
-0.000685346
-0.000693739
-0.000702141
-0.000710436
-0.000718488
-0.000726143
-0.000733229
-0.000739562
-0.00074495
-0.000749206
-0.000752163
-0.000753687
-0.000753723
-0.000752148
-0.000748999
-0.00146148
-0.00146503
-0.00146683
-0.00146698
-0.00146575
-0.00146326
-0.00145964
-0.00145506
-0.00144967
-0.00144363
-0.0014371
-0.00143022
-0.00142311
-0.0014159
-0.00140867
-0.00140151
-0.00139449
-0.00138767
-0.00138108
-0.00137476
-0.00136872
-0.00136299
-0.00135757
-0.00135247
-0.00134767
-0.00134318
-0.00133897
-0.00133505
-0.00133139
-0.00132799
-0.00132483
-0.0013219
-0.00131917
-0.00131664
-0.00131429
-0.00131211
-0.00131008
-0.00130821
-0.00130646
-0.00130484
-0.00130333
-0.00130193
-0.00130062
-0.0012994
-0.00129827
-0.0012972
-0.00129621
-0.00129529
-0.00129442
-0.00129361
-0.00129284
-0.00129213
-0.00129146
-0.00129083
-0.00129023
-0.00128967
-0.00128915
-0.00128865
-0.00128818
-0.00128774
-0.00128732
-0.00128693
-0.00128656
-0.0012862
-0.00128587
-0.00128556
-0.00128526
-0.00128498
-0.00128471
-0.00128446
-0.00128423
-0.001284
-0.00128379
-0.00128359
-0.0012834
-0.00128322
-0.00128306
-0.0012829
-0.00128275
-0.00128261
-0.00128248
-0.00128236
-0.00128225
-0.00128215
-0.00128205
-0.00128196
-0.00128188
-0.00128181
-0.00128174
-0.00128168
-0.00128163
-0.00128158
-0.00128154
-0.0012815
-0.00128148
-0.00128146
-0.00128144
-0.00128143
-0.00128143
-0.00128143
-0.00128144
-0.00128146
-0.00128148
-0.00128151
-0.00128155
-0.00128159
-0.00128164
-0.00128169
-0.00128175
-0.00128182
-0.00128189
-0.00128198
-0.00128206
-0.00128216
-0.00128226
-0.00128238
-0.0012825
-0.00128262
-0.00128276
-0.00128291
-0.00128306
-0.00128322
-0.0012834
-0.00128358
-0.00128378
-0.00128399
-0.00128421
-0.00128444
-0.00128468
-0.00128494
-0.00128521
-0.0012855
-0.0012858
-0.00128612
-0.00128646
-0.00128681
-0.00128719
-0.00128759
-0.00128801
-0.00128845
-0.00128892
-0.00128942
-0.00128994
-0.0012905
-0.00129109
-0.00129172
-0.00129238
-0.00129309
-0.00129384
-0.00129464
-0.00129549
-0.0012964
-0.00129736
-0.0012984
-0.0012995
-0.00130068
-0.00130195
-0.0013033
-0.00130475
-0.00130631
-0.00130799
-0.00130979
-0.00131173
-0.00131381
-0.00131606
-0.00131848
-0.00132108
-0.00132389
-0.00132691
-0.00133016
-0.00133366
-0.00133742
-0.00134146
-0.0013458
-0.00135044
-0.0013554
-0.0013607
-0.00136633
-0.0013723
-0.0013786
-0.00138524
-0.00139219
-0.00139942
-0.00140691
-0.0014146
-0.00142243
-0.00143033
-0.00143821
-0.00144595
-0.00145344
-0.00146053
-0.00146707
-0.0014729
-0.00147784
-0.00148172
-0.00148437
-0.00148565
-0.00148544
-0.00148345
-0.00147958
-0.00243412
-0.00243817
-0.00244032
-0.00244074
-0.00243979
-0.00243761
-0.00243436
-0.00243019
-0.00242526
-0.00241971
-0.00241369
-0.00240731
-0.0024007
-0.00239397
-0.00238719
-0.00238046
-0.00237383
-0.00236736
-0.00236109
-0.00235505
-0.00234927
-0.00234376
-0.00233852
-0.00233358
-0.00232891
-0.00232453
-0.00232042
-0.00231658
-0.00231299
-0.00230963
-0.00230651
-0.00230361
-0.0023009
-0.00229839
-0.00229605
-0.00229388
-0.00229186
-0.00228998
-0.00228823
-0.00228661
-0.0022851
-0.00228369
-0.00228238
-0.00228116
-0.00228001
-0.00227895
-0.00227795
-0.00227702
-0.00227615
-0.00227533
-0.00227456
-0.00227384
-0.00227317
-0.00227253
-0.00227193
-0.00227137
-0.00227084
-0.00227034
-0.00226987
-0.00226943
-0.00226901
-0.00226861
-0.00226824
-0.00226788
-0.00226755
-0.00226723
-0.00226693
-0.00226665
-0.00226638
-0.00226613
-0.00226589
-0.00226567
-0.00226546
-0.00226526
-0.00226507
-0.00226489
-0.00226472
-0.00226456
-0.00226441
-0.00226428
-0.00226415
-0.00226402
-0.00226391
-0.00226381
-0.00226371
-0.00226362
-0.00226354
-0.00226347
-0.0022634
-0.00226334
-0.00226328
-0.00226324
-0.0022632
-0.00226316
-0.00226313
-0.00226311
-0.0022631
-0.00226309
-0.00226309
-0.00226309
-0.0022631
-0.00226312
-0.00226314
-0.00226317
-0.0022632
-0.00226325
-0.00226329
-0.00226335
-0.00226341
-0.00226348
-0.00226355
-0.00226363
-0.00226372
-0.00226382
-0.00226392
-0.00226404
-0.00226416
-0.00226429
-0.00226442
-0.00226457
-0.00226472
-0.00226489
-0.00226506
-0.00226525
-0.00226545
-0.00226565
-0.00226587
-0.00226611
-0.00226635
-0.00226661
-0.00226688
-0.00226717
-0.00226748
-0.0022678
-0.00226814
-0.00226849
-0.00226887
-0.00226927
-0.00226969
-0.00227014
-0.00227061
-0.00227111
-0.00227164
-0.0022722
-0.0022728
-0.00227343
-0.0022741
-0.00227481
-0.00227556
-0.00227637
-0.00227722
-0.00227813
-0.00227911
-0.00228014
-0.00228125
-0.00228244
-0.00228371
-0.00228507
-0.00228653
-0.0022881
-0.00228978
-0.00229158
-0.00229352
-0.0022956
-0.00229784
-0.00230025
-0.00230284
-0.00230563
-0.00230863
-0.00231185
-0.0023153
-0.00231901
-0.00232298
-0.00232723
-0.00233177
-0.00233661
-0.00234175
-0.0023472
-0.00235296
-0.00235903
-0.00236539
-0.00237203
-0.00237892
-0.00238601
-0.00239328
-0.00240065
-0.00240806
-0.00241541
-0.00242262
-0.00242956
-0.00243611
-0.00244213
-0.00244747
-0.00245196
-0.00245546
-0.00245778
-0.00245877
-0.00245826
-0.0024559
-0.00245148
-0.00364458
-0.00364892
-0.00365132
-0.00365199
-0.00365132
-0.00364945
-0.00364656
-0.0036428
-0.00363831
-0.00363323
-0.00362769
-0.00362181
-0.00361569
-0.00360943
-0.00360312
-0.00359681
-0.00359059
-0.00358449
-0.00357856
-0.00357283
-0.00356732
-0.00356206
-0.00355705
-0.00355229
-0.00354779
-0.00354356
-0.00353957
-0.00353583
-0.00353233
-0.00352906
-0.003526
-0.00352315
-0.00352049
-0.00351801
-0.0035157
-0.00351356
-0.00351156
-0.00350969
-0.00350796
-0.00350635
-0.00350484
-0.00350344
-0.00350213
-0.00350091
-0.00349977
-0.00349871
-0.00349771
-0.00349678
-0.00349591
-0.00349509
-0.00349432
-0.0034936
-0.00349293
-0.00349229
-0.00349169
-0.00349113
-0.0034906
-0.0034901
-0.00348963
-0.00348918
-0.00348876
-0.00348836
-0.00348799
-0.00348763
-0.0034873
-0.00348698
-0.00348668
-0.0034864
-0.00348613
-0.00348588
-0.00348564
-0.00348542
-0.0034852
-0.003485
-0.00348481
-0.00348464
-0.00348447
-0.00348431
-0.00348416
-0.00348402
-0.00348389
-0.00348377
-0.00348366
-0.00348355
-0.00348346
-0.00348337
-0.00348329
-0.00348321
-0.00348314
-0.00348308
-0.00348303
-0.00348298
-0.00348294
-0.00348291
-0.00348288
-0.00348286
-0.00348284
-0.00348283
-0.00348283
-0.00348284
-0.00348285
-0.00348286
-0.00348288
-0.00348291
-0.00348295
-0.00348299
-0.00348304
-0.00348309
-0.00348315
-0.00348322
-0.0034833
-0.00348338
-0.00348347
-0.00348357
-0.00348367
-0.00348378
-0.0034839
-0.00348403
-0.00348417
-0.00348432
-0.00348447
-0.00348464
-0.00348481
-0.003485
-0.00348519
-0.0034854
-0.00348562
-0.00348586
-0.0034861
-0.00348636
-0.00348663
-0.00348692
-0.00348723
-0.00348755
-0.00348789
-0.00348825
-0.00348863
-0.00348903
-0.00348945
-0.0034899
-0.00349037
-0.00349087
-0.0034914
-0.00349196
-0.00349256
-0.00349319
-0.00349386
-0.00349457
-0.00349533
-0.00349613
-0.00349699
-0.0034979
-0.00349887
-0.00349991
-0.00350102
-0.00350221
-0.00350347
-0.00350483
-0.00350628
-0.00350784
-0.00350951
-0.00351131
-0.00351323
-0.0035153
-0.00351752
-0.0035199
-0.00352246
-0.0035252
-0.00352815
-0.00353131
-0.00353469
-0.00353832
-0.00354219
-0.00354632
-0.00355072
-0.0035554
-0.00356036
-0.0035656
-0.00357112
-0.00357692
-0.00358298
-0.00358928
-0.00359579
-0.00360248
-0.0036093
-0.00361621
-0.00362312
-0.00362995
-0.00363663
-0.00364304
-0.00364907
-0.00365458
-0.00365945
-0.00366352
-0.00366663
-0.00366863
-0.00366932
-0.00366855
-0.00366591
-0.00366116
-0.00508826
-0.00509269
-0.00509523
-0.0050961
-0.00509566
-0.00509409
-0.00509155
-0.00508818
-0.00508411
-0.00507949
-0.00507443
-0.00506903
-0.0050634
-0.00505761
-0.00505176
-0.0050459
-0.00504009
-0.00503438
-0.00502881
-0.00502341
-0.0050182
-0.00501321
-0.00500844
-0.00500391
-0.0049996
-0.00499554
-0.00499171
-0.0049881
-0.00498471
-0.00498154
-0.00497857
-0.00497579
-0.0049732
-0.00497078
-0.00496852
-0.00496641
-0.00496445
-0.00496261
-0.00496091
-0.00495931
-0.00495783
-0.00495644
-0.00495515
-0.00495394
-0.00495281
-0.00495175
-0.00495076
-0.00494984
-0.00494897
-0.00494815
-0.00494739
-0.00494667
-0.004946
-0.00494536
-0.00494477
-0.00494421
-0.00494368
-0.00494318
-0.00494271
-0.00494226
-0.00494184
-0.00494145
-0.00494107
-0.00494072
-0.00494038
-0.00494007
-0.00493977
-0.00493949
-0.00493922
-0.00493897
-0.00493873
-0.0049385
-0.00493829
-0.00493809
-0.0049379
-0.00493772
-0.00493756
-0.0049374
-0.00493725
-0.00493711
-0.00493698
-0.00493686
-0.00493675
-0.00493664
-0.00493655
-0.00493646
-0.00493637
-0.0049363
-0.00493623
-0.00493617
-0.00493612
-0.00493607
-0.00493603
-0.004936
-0.00493597
-0.00493595
-0.00493593
-0.00493592
-0.00493592
-0.00493593
-0.00493594
-0.00493595
-0.00493597
-0.004936
-0.00493604
-0.00493608
-0.00493613
-0.00493618
-0.00493624
-0.00493631
-0.00493639
-0.00493647
-0.00493656
-0.00493665
-0.00493676
-0.00493687
-0.00493699
-0.00493712
-0.00493726
-0.0049374
-0.00493756
-0.00493773
-0.0049379
-0.00493809
-0.00493828
-0.00493849
-0.00493871
-0.00493894
-0.00493919
-0.00493945
-0.00493972
-0.00494001
-0.00494031
-0.00494063
-0.00494097
-0.00494133
-0.00494171
-0.00494211
-0.00494253
-0.00494298
-0.00494345
-0.00494395
-0.00494448
-0.00494504
-0.00494563
-0.00494626
-0.00494693
-0.00494764
-0.00494839
-0.00494919
-0.00495005
-0.00495096
-0.00495192
-0.00495296
-0.00495406
-0.00495523
-0.00495649
-0.00495784
-0.00495928
-0.00496082
-0.00496247
-0.00496424
-0.00496613
-0.00496817
-0.00497035
-0.00497268
-0.00497519
-0.00497787
-0.00498075
-0.00498383
-0.00498711
-0.00499063
-0.00499437
-0.00499836
-0.00500259
-0.00500708
-0.00501182
-0.00501683
-0.00502208
-0.00502758
-0.00503331
-0.00503924
-0.00504536
-0.00505163
-0.005058
-0.00506443
-0.00507084
-0.00507716
-0.00508332
-0.00508921
-0.00509472
-0.00509975
-0.00510416
-0.00510781
-0.00511056
-0.00511224
-0.00511268
-0.00511171
-0.00510891
-0.00510405
-0.00675968
-0.00676403
-0.00676659
-0.00676758
-0.00676735
-0.00676604
-0.00676382
-0.00676082
-0.00675718
-0.006753
-0.0067484
-0.00674348
-0.00673833
-0.00673302
-0.00672762
-0.00672221
-0.00671683
-0.00671152
-0.00670632
-0.00670127
-0.00669639
-0.00669169
-0.00668719
-0.0066829
-0.00667881
-0.00667494
-0.00667129
-0.00666783
-0.00666459
-0.00666154
-0.00665867
-0.00665599
-0.00665348
-0.00665113
-0.00664893
-0.00664688
-0.00664497
-0.00664318
-0.00664151
-0.00663995
-0.00663849
-0.00663713
-0.00663585
-0.00663466
-0.00663355
-0.00663251
-0.00663153
-0.00663061
-0.00662976
-0.00662895
-0.00662819
-0.00662748
-0.00662681
-0.00662619
-0.00662559
-0.00662504
-0.00662451
-0.00662401
-0.00662355
-0.0066231
-0.00662269
-0.00662229
-0.00662192
-0.00662157
-0.00662124
-0.00662092
-0.00662063
-0.00662034
-0.00662008
-0.00661983
-0.00661959
-0.00661936
-0.00661915
-0.00661895
-0.00661876
-0.00661859
-0.00661842
-0.00661826
-0.00661811
-0.00661798
-0.00661785
-0.00661773
-0.00661761
-0.00661751
-0.00661741
-0.00661732
-0.00661724
-0.00661717
-0.0066171
-0.00661704
-0.00661699
-0.00661694
-0.0066169
-0.00661687
-0.00661684
-0.00661682
-0.0066168
-0.00661679
-0.00661679
-0.00661679
-0.0066168
-0.00661682
-0.00661684
-0.00661687
-0.00661691
-0.00661695
-0.006617
-0.00661705
-0.00661711
-0.00661718
-0.00661725
-0.00661734
-0.00661743
-0.00661752
-0.00661763
-0.00661774
-0.00661786
-0.00661799
-0.00661812
-0.00661827
-0.00661842
-0.00661859
-0.00661876
-0.00661895
-0.00661915
-0.00661935
-0.00661957
-0.0066198
-0.00662005
-0.0066203
-0.00662058
-0.00662086
-0.00662117
-0.00662149
-0.00662182
-0.00662218
-0.00662256
-0.00662296
-0.00662338
-0.00662382
-0.00662429
-0.00662479
-0.00662531
-0.00662587
-0.00662646
-0.00662708
-0.00662775
-0.00662845
-0.0066292
-0.00662999
-0.00663084
-0.00663174
-0.00663269
-0.00663371
-0.0066348
-0.00663596
-0.0066372
-0.00663853
-0.00663994
-0.00664146
-0.00664308
-0.00664481
-0.00664667
-0.00664865
-0.00665078
-0.00665305
-0.00665549
-0.00665809
-0.00666088
-0.00666385
-0.00666702
-0.0066704
-0.00667399
-0.0066778
-0.00668184
-0.00668612
-0.00669062
-0.00669536
-0.00670032
-0.0067055
-0.00671087
-0.00671643
-0.00672214
-0.00672797
-0.00673388
-0.00673982
-0.00674573
-0.00675154
-0.00675718
-0.00676256
-0.00676757
-0.00677212
-0.00677609
-0.00677934
-0.00678175
-0.00678315
-0.00678338
-0.00678227
-0.00677944
-0.00677466
-0.00865253
-0.00865667
-0.00865916
-0.00866021
-0.00866013
-0.00865906
-0.00865713
-0.00865449
-0.00865124
-0.0086475
-0.00864336
-0.00863891
-0.00863423
-0.00862939
-0.00862446
-0.00861949
-0.00861454
-0.00860965
-0.00860484
-0.00860015
-0.00859561
-0.00859122
-0.00858701
-0.00858298
-0.00857913
-0.00857548
-0.00857202
-0.00856874
-0.00856565
-0.00856274
-0.00856
-0.00855743
-0.00855502
-0.00855276
-0.00855064
-0.00854866
-0.00854681
-0.00854507
-0.00854345
-0.00854193
-0.00854051
-0.00853918
-0.00853793
-0.00853677
-0.00853568
-0.00853465
-0.0085337
-0.0085328
-0.00853195
-0.00853116
-0.00853041
-0.00852971
-0.00852905
-0.00852843
-0.00852785
-0.0085273
-0.00852678
-0.00852629
-0.00852582
-0.00852538
-0.00852497
-0.00852458
-0.00852421
-0.00852386
-0.00852353
-0.00852322
-0.00852293
-0.00852265
-0.00852238
-0.00852213
-0.0085219
-0.00852167
-0.00852146
-0.00852127
-0.00852108
-0.0085209
-0.00852073
-0.00852058
-0.00852043
-0.00852029
-0.00852017
-0.00852005
-0.00851993
-0.00851983
-0.00851973
-0.00851965
-0.00851957
-0.00851949
-0.00851942
-0.00851936
-0.00851931
-0.00851926
-0.00851922
-0.00851919
-0.00851916
-0.00851914
-0.00851913
-0.00851912
-0.00851912
-0.00851912
-0.00851913
-0.00851915
-0.00851917
-0.0085192
-0.00851923
-0.00851927
-0.00851932
-0.00851938
-0.00851944
-0.0085195
-0.00851958
-0.00851966
-0.00851975
-0.00851984
-0.00851995
-0.00852006
-0.00852018
-0.00852031
-0.00852044
-0.00852059
-0.00852074
-0.00852091
-0.00852108
-0.00852126
-0.00852146
-0.00852166
-0.00852188
-0.00852211
-0.00852235
-0.00852261
-0.00852288
-0.00852317
-0.00852347
-0.00852378
-0.00852412
-0.00852447
-0.00852485
-0.00852524
-0.00852566
-0.0085261
-0.00852656
-0.00852706
-0.00852758
-0.00852813
-0.00852871
-0.00852933
-0.00852998
-0.00853068
-0.00853142
-0.0085322
-0.00853303
-0.00853392
-0.00853486
-0.00853586
-0.00853693
-0.00853807
-0.00853928
-0.00854058
-0.00854196
-0.00854344
-0.00854502
-0.00854671
-0.00854851
-0.00855044
-0.0085525
-0.0085547
-0.00855705
-0.00855955
-0.00856223
-0.00856507
-0.00856811
-0.00857133
-0.00857475
-0.00857837
-0.0085822
-0.00858623
-0.00859048
-0.00859493
-0.00859957
-0.00860441
-0.00860942
-0.00861458
-0.00861987
-0.00862525
-0.00863069
-0.00863614
-0.00864155
-0.00864685
-0.00865198
-0.00865685
-0.00866137
-0.00866546
-0.008669
-0.00867187
-0.00867396
-0.00867512
-0.00867518
-0.00867402
-0.00867126
-0.00866671
-0.0107598
-0.0107637
-0.010766
-0.010767
-0.0107671
-0.0107662
-0.0107646
-0.0107622
-0.0107594
-0.0107561
-0.0107524
-0.0107484
-0.0107442
-0.0107398
-0.0107353
-0.0107308
-0.0107263
-0.0107218
-0.0107174
-0.0107131
-0.0107089
-0.0107048
-0.0107009
-0.0106972
-0.0106936
-0.0106902
-0.0106869
-0.0106838
-0.0106809
-0.0106782
-0.0106756
-0.0106731
-0.0106708
-0.0106687
-0.0106666
-0.0106647
-0.010663
-0.0106613
-0.0106597
-0.0106583
-0.0106569
-0.0106556
-0.0106544
-0.0106532
-0.0106522
-0.0106512
-0.0106502
-0.0106494
-0.0106485
-0.0106478
-0.010647
-0.0106463
-0.0106457
-0.0106451
-0.0106445
-0.010644
-0.0106435
-0.010643
-0.0106425
-0.0106421
-0.0106417
-0.0106413
-0.0106409
-0.0106406
-0.0106403
-0.01064
-0.0106397
-0.0106394
-0.0106391
-0.0106389
-0.0106386
-0.0106384
-0.0106382
-0.010638
-0.0106378
-0.0106377
-0.0106375
-0.0106373
-0.0106372
-0.0106371
-0.0106369
-0.0106368
-0.0106367
-0.0106366
-0.0106365
-0.0106364
-0.0106363
-0.0106363
-0.0106362
-0.0106361
-0.0106361
-0.010636
-0.010636
-0.010636
-0.0106359
-0.0106359
-0.0106359
-0.0106359
-0.0106359
-0.0106359
-0.0106359
-0.0106359
-0.0106359
-0.010636
-0.010636
-0.010636
-0.0106361
-0.0106361
-0.0106362
-0.0106363
-0.0106363
-0.0106364
-0.0106365
-0.0106366
-0.0106367
-0.0106368
-0.0106369
-0.0106371
-0.0106372
-0.0106373
-0.0106375
-0.0106377
-0.0106378
-0.010638
-0.0106382
-0.0106384
-0.0106386
-0.0106389
-0.0106391
-0.0106393
-0.0106396
-0.0106399
-0.0106402
-0.0106405
-0.0106408
-0.0106412
-0.0106416
-0.010642
-0.0106424
-0.0106428
-0.0106433
-0.0106437
-0.0106443
-0.0106448
-0.0106454
-0.010646
-0.0106466
-0.0106473
-0.010648
-0.0106488
-0.0106496
-0.0106505
-0.0106514
-0.0106524
-0.0106534
-0.0106545
-0.0106557
-0.010657
-0.0106583
-0.0106598
-0.0106613
-0.0106629
-0.0106647
-0.0106665
-0.0106685
-0.0106706
-0.0106729
-0.0106753
-0.0106778
-0.0106805
-0.0106834
-0.0106864
-0.0106897
-0.0106931
-0.0106967
-0.0107005
-0.0107044
-0.0107086
-0.0107129
-0.0107174
-0.010722
-0.0107267
-0.0107316
-0.0107365
-0.0107415
-0.0107464
-0.0107513
-0.0107561
-0.0107608
-0.0107651
-0.0107692
-0.0107728
-0.010776
-0.0107785
-0.0107803
-0.0107812
-0.0107812
-0.01078
-0.0107774
-0.0107732
-0.013074
-0.0130774
-0.0130795
-0.0130805
-0.0130806
-0.0130799
-0.0130785
-0.0130765
-0.013074
-0.0130711
-0.0130679
-0.0130643
-0.0130606
-0.0130567
-0.0130527
-0.0130486
-0.0130445
-0.0130405
-0.0130365
-0.0130325
-0.0130287
-0.013025
-0.0130214
-0.0130179
-0.0130146
-0.0130114
-0.0130084
-0.0130055
-0.0130028
-0.0130002
-0.0129978
-0.0129955
-0.0129933
-0.0129912
-0.0129893
-0.0129875
-0.0129858
-0.0129842
-0.0129827
-0.0129813
-0.01298
-0.0129787
-0.0129776
-0.0129765
-0.0129754
-0.0129745
-0.0129736
-0.0129727
-0.0129719
-0.0129712
-0.0129704
-0.0129698
-0.0129691
-0.0129685
-0.012968
-0.0129674
-0.0129669
-0.0129665
-0.012966
-0.0129656
-0.0129652
-0.0129648
-0.0129645
-0.0129641
-0.0129638
-0.0129635
-0.0129632
-0.0129629
-0.0129627
-0.0129624
-0.0129622
-0.012962
-0.0129618
-0.0129616
-0.0129614
-0.0129612
-0.0129611
-0.0129609
-0.0129608
-0.0129606
-0.0129605
-0.0129604
-0.0129603
-0.0129602
-0.0129601
-0.01296
-0.0129599
-0.0129598
-0.0129598
-0.0129597
-0.0129597
-0.0129596
-0.0129596
-0.0129595
-0.0129595
-0.0129595
-0.0129595
-0.0129595
-0.0129595
-0.0129595
-0.0129595
-0.0129595
-0.0129595
-0.0129596
-0.0129596
-0.0129596
-0.0129597
-0.0129597
-0.0129598
-0.0129599
-0.0129599
-0.01296
-0.0129601
-0.0129602
-0.0129603
-0.0129604
-0.0129605
-0.0129606
-0.0129608
-0.0129609
-0.0129611
-0.0129612
-0.0129614
-0.0129616
-0.0129618
-0.012962
-0.0129622
-0.0129624
-0.0129627
-0.0129629
-0.0129632
-0.0129634
-0.0129637
-0.012964
-0.0129644
-0.0129647
-0.0129651
-0.0129655
-0.0129659
-0.0129663
-0.0129668
-0.0129672
-0.0129677
-0.0129683
-0.0129688
-0.0129694
-0.0129701
-0.0129707
-0.0129714
-0.0129722
-0.012973
-0.0129738
-0.0129747
-0.0129757
-0.0129767
-0.0129778
-0.0129789
-0.0129801
-0.0129814
-0.0129828
-0.0129843
-0.0129858
-0.0129875
-0.0129893
-0.0129912
-0.0129932
-0.0129953
-0.0129976
-0.013
-0.0130026
-0.0130053
-0.0130081
-0.0130112
-0.0130143
-0.0130177
-0.0130212
-0.0130249
-0.0130287
-0.0130327
-0.0130368
-0.013041
-0.0130453
-0.0130498
-0.0130542
-0.0130587
-0.0130632
-0.0130676
-0.0130719
-0.013076
-0.0130799
-0.0130835
-0.0130867
-0.0130894
-0.0130916
-0.0130931
-0.0130939
-0.0130938
-0.0130927
-0.0130903
-0.0130865
-0.0155868
-0.0155898
-0.0155917
-0.0155926
-0.0155927
-0.0155922
-0.015591
-0.0155893
-0.0155872
-0.0155846
-0.0155818
-0.0155787
-0.0155754
-0.0155719
-0.0155684
-0.0155648
-0.0155611
-0.0155575
-0.0155539
-0.0155504
-0.0155469
-0.0155435
-0.0155402
-0.0155371
-0.015534
-0.0155311
-0.0155283
-0.0155257
-0.0155231
-0.0155207
-0.0155185
-0.0155163
-0.0155143
-0.0155123
-0.0155105
-0.0155088
-0.0155072
-0.0155057
-0.0155043
-0.0155029
-0.0155017
-0.0155005
-0.0154994
-0.0154983
-0.0154973
-0.0154964
-0.0154955
-0.0154947
-0.0154939
-0.0154932
-0.0154925
-0.0154918
-0.0154912
-0.0154906
-0.0154901
-0.0154896
-0.0154891
-0.0154886
-0.0154882
-0.0154878
-0.0154874
-0.015487
-0.0154866
-0.0154863
-0.015486
-0.0154857
-0.0154854
-0.0154851
-0.0154849
-0.0154846
-0.0154844
-0.0154842
-0.015484
-0.0154838
-0.0154836
-0.0154835
-0.0154833
-0.0154831
-0.015483
-0.0154829
-0.0154827
-0.0154826
-0.0154825
-0.0154824
-0.0154823
-0.0154822
-0.0154822
-0.0154821
-0.015482
-0.015482
-0.0154819
-0.0154819
-0.0154818
-0.0154818
-0.0154818
-0.0154817
-0.0154817
-0.0154817
-0.0154817
-0.0154817
-0.0154817
-0.0154818
-0.0154818
-0.0154818
-0.0154818
-0.0154819
-0.0154819
-0.015482
-0.015482
-0.0154821
-0.0154822
-0.0154823
-0.0154823
-0.0154824
-0.0154825
-0.0154826
-0.0154828
-0.0154829
-0.015483
-0.0154832
-0.0154833
-0.0154835
-0.0154836
-0.0154838
-0.015484
-0.0154842
-0.0154844
-0.0154846
-0.0154849
-0.0154851
-0.0154854
-0.0154856
-0.0154859
-0.0154862
-0.0154866
-0.0154869
-0.0154873
-0.0154876
-0.015488
-0.0154885
-0.0154889
-0.0154894
-0.0154899
-0.0154904
-0.0154909
-0.0154915
-0.0154921
-0.0154928
-0.0154935
-0.0154942
-0.015495
-0.0154958
-0.0154967
-0.0154976
-0.0154986
-0.0154996
-0.0155007
-0.0155019
-0.0155031
-0.0155044
-0.0155058
-0.0155073
-0.0155089
-0.0155106
-0.0155124
-0.0155143
-0.0155163
-0.0155184
-0.0155207
-0.0155231
-0.0155256
-0.0155283
-0.0155311
-0.015534
-0.0155371
-0.0155404
-0.0155437
-0.0155472
-0.0155508
-0.0155546
-0.0155584
-0.0155623
-0.0155663
-0.0155703
-0.0155743
-0.0155783
-0.0155822
-0.015586
-0.0155896
-0.015593
-0.0155962
-0.015599
-0.0156013
-0.0156032
-0.0156045
-0.0156051
-0.0156049
-0.0156039
-0.0156018
-0.0155985
-0.0182898
-0.0182923
-0.0182939
-0.0182947
-0.0182949
-0.0182944
-0.0182935
-0.018292
-0.0182902
-0.0182881
-0.0182856
-0.018283
-0.0182801
-0.0182771
-0.018274
-0.0182708
-0.0182676
-0.0182644
-0.0182612
-0.0182581
-0.018255
-0.0182519
-0.018249
-0.0182461
-0.0182434
-0.0182407
-0.0182382
-0.0182357
-0.0182334
-0.0182312
-0.0182291
-0.0182271
-0.0182252
-0.0182234
-0.0182217
-0.0182201
-0.0182186
-0.0182172
-0.0182158
-0.0182145
-0.0182134
-0.0182122
-0.0182112
-0.0182102
-0.0182092
-0.0182083
-0.0182075
-0.0182067
-0.0182059
-0.0182052
-0.0182046
-0.0182039
-0.0182033
-0.0182028
-0.0182022
-0.0182017
-0.0182012
-0.0182008
-0.0182004
-0.0182
-0.0181996
-0.0181992
-0.0181989
-0.0181985
-0.0181982
-0.0181979
-0.0181977
-0.0181974
-0.0181972