/*--------------------------------*- C++ -*----------------------------------*\
| =========                 |                                                 |
| \\      /  F ield         | OpenFOAM: The Open Source CFD Toolbox           |
|  \\    /   O peration     | Version:  2412                                  |
|   \\  /    A nd           | Website:  www.openfoam.com                      |
|    \\/     M anipulation  |                                                 |
\*---------------------------------------------------------------------------*/
FoamFile
{
    version     2.0;
    format      ascii;
    arch        "LSB;label=32;scalar=64";
    class       volScalarField;
    location    "500";
    object      p_rgh;
}
// * * * * * * * * * * * * * * * * * * * * * * * * * * * * * * * * * * * * * //

dimensions      [0 2 -2 0 0 0 0];

internalField   nonuniform List<scalar> 
40000
(
6.13119e-05
5.92555e-05
5.78145e-05
5.7743e-05
5.9324e-05
6.25558e-05
6.72768e-05
7.32586e-05
8.02514e-05
8.80027e-05
9.62864e-05
0.000104894
0.000113652
0.00012241
0.000131047
0.000139467
0.000147599
0.000155387
0.000162795
0.0001698
0.000176389
0.000182563
0.000188327
0.000193692
0.000198673
0.000203289
0.00020756
0.000211507
0.000215152
0.000218516
0.00022162
0.000224484
0.000227128
0.000229568
0.000231824
0.000233908
0.000235835
0.000237621
0.000239275
0.000240811
0.000242236
0.000243563
0.000244796
0.000245945
0.000247018
0.000248019
0.000248955
0.000249833
0.000250654
0.000251423
0.000252146
0.000252825
0.000253463
0.000254064
0.00025463
0.000255162
0.000255665
0.00025614
0.000256589
0.000257012
0.000257412
0.000257791
0.000258148
0.000258487
0.000258807
0.00025911
0.000259397
0.000259669
0.000259925
0.000260168
0.000260397
0.000260614
0.00026082
0.000261015
0.000261197
0.00026137
0.000261532
0.000261685
0.000261829
0.000261963
0.000262089
0.000262207
0.000262317
0.000262418
0.000262512
0.000262599
0.000262679
0.000262751
0.000262817
0.000262875
0.000262927
0.000262973
0.000263013
0.000263046
0.000263072
0.000263093
0.000263108
0.000263116
0.000263117
0.000263113
0.000263103
0.000263087
0.000263064
0.000263036
0.000263002
0.000262961
0.000262914
0.00026286
0.0002628
0.000262734
0.000262661
0.000262581
0.000262495
0.000262401
0.0002623
0.000262192
0.000262075
0.00026195
0.000261817
0.000261675
0.000261525
0.000261365
0.000261195
0.000261015
0.000260825
0.000260624
0.000260412
0.000260187
0.00025995
0.0002597
0.000259436
0.000259158
0.000258865
0.000258556
0.000258229
0.000257885
0.000257521
0.000257138
0.000256734
0.000256308
0.000255857
0.000255382
0.000254878
0.000254346
0.000253781
0.000253183
0.00025255
0.000251879
0.000251167
0.000250409
0.000249603
0.000248745
0.00024783
0.000246853
0.000245809
0.000244693
0.000243499
0.000242221
0.000240848
0.000239375
0.00023779
0.000236085
0.000234248
0.000232266
0.000230126
0.000227813
0.000225312
0.000222605
0.000219675
0.000216501
0.000213062
0.000209337
0.000205304
0.000200938
0.000196216
0.000191116
0.000185617
0.000179697
0.000173341
0.000166539
0.000159284
0.00015158
0.000143441
0.000134893
0.000125978
0.000116757
0.000107314
9.77533e-05
8.82099e-05
7.88465e-05
6.98567e-05
6.14651e-05
5.39222e-05
4.74973e-05
4.24603e-05
3.90545e-05
3.74463e-05
3.76281e-05
3.9275e-05
4.15786e-05
0.000308204
0.000306511
0.000305794
0.00030641
0.000308443
0.000311882
0.000316599
0.000322415
0.000329131
0.00033654
0.000344448
0.000352676
0.00036107
0.000369495
0.000377839
0.000386009
0.000393934
0.00040156
0.000408849
0.000415774
0.000422318
0.000428475
0.000434248
0.000439642
0.00044467
0.000449346
0.000453685
0.000457707
0.000461432
0.000464877
0.000468063
0.000471008
0.000473729
0.000476244
0.00047857
0.000480722
0.000482714
0.000484559
0.000486268
0.000487854
0.000489326
0.000490694
0.000491968
0.000493154
0.000494259
0.00049529
0.000496253
0.000497155
0.000497999
0.000498789
0.00049953
0.000500226
0.000500879
0.000501495
0.000502074
0.000502619
0.000503132
0.000503616
0.000504073
0.000504505
0.000504912
0.000505298
0.000505662
0.000506007
0.000506332
0.00050664
0.000506931
0.000507206
0.000507467
0.000507714
0.000507947
0.000508167
0.000508375
0.000508572
0.000508757
0.000508932
0.000509096
0.000509251
0.000509396
0.000509533
0.00050966
0.000509779
0.00050989
0.000509993
0.000510088
0.000510175
0.000510255
0.000510329
0.000510396
0.000510456
0.000510508
0.000510554
0.000510593
0.000510627
0.000510654
0.000510675
0.00051069
0.000510698
0.0005107
0.000510696
0.000510686
0.000510669
0.000510646
0.000510618
0.000510583
0.000510542
0.000510495
0.000510441
0.00051038
0.000510313
0.00051024
0.00051016
0.000510072
0.000509977
0.000509875
0.000509765
0.000509647
0.000509521
0.000509386
0.000509243
0.000509091
0.000508929
0.000508758
0.000508576
0.000508383
0.000508179
0.000507964
0.000507737
0.000507497
0.000507243
0.000506976
0.000506693
0.000506395
0.000506081
0.00050575
0.000505401
0.000505032
0.000504643
0.000504231
0.000503796
0.000503337
0.000502851
0.000502339
0.000501796
0.000501221
0.000500611
0.000499962
0.000499274
0.000498544
0.000497767
0.00049694
0.000496059
0.000495119
0.000494115
0.000493042
0.000491893
0.000490663
0.000489344
0.000487928
0.000486406
0.00048477
0.000483008
0.000481109
0.000479062
0.000476852
0.000474465
0.000471886
0.000469096
0.000466081
0.000462819
0.000459291
0.000455478
0.000451358
0.00044691
0.000442115
0.000436952
0.000431403
0.000425454
0.000419092
0.000412311
0.000405111
0.0003975
0.000389497
0.000381131
0.000372447
0.000363506
0.000354389
0.000345197
0.000336053
0.000327107
0.000318527
0.00031051
0.000303266
0.000297017
0.00029198
0.000288344
0.000286239
0.000285671
0.00028654
0.000288505
0.000796079
0.000794732
0.000794686
0.000796061
0.000798734
0.000802653
0.000807687
0.000813681
0.000820465
0.000827862
0.000835707
0.000843841
0.000852127
0.000860443
0.000868688
0.000876776
0.000884638
0.000892221
0.000899487
0.000906409
0.00091297
0.00091916
0.000924978
0.000930428
0.00093552
0.000940266
0.00094468
0.000948779
0.00095258
0.000956102
0.000959363
0.000962379
0.00096517
0.00096775
0.000970138
0.000972346
0.000974392
0.000976284
0.00097804
0.000979667
0.000981178
0.00098258
0.000983885
0.0009851
0.000986231
0.000987286
0.000988272
0.000989192
0.000990053
0.00099086
0.000991616
0.000992324
0.00099299
0.000993615
0.000994204
0.000994758
0.00099528
0.000995772
0.000996236
0.000996674
0.000997087
0.000997477
0.000997846
0.000998195
0.000998525
0.000998837
0.000999131
0.000999409
0.000999672
0.000999922
0.00100016
0.00100038
0.00100059
0.00100079
0.00100098
0.00100115
0.00100132
0.00100147
0.00100162
0.00100176
0.00100189
0.00100201
0.00100212
0.00100222
0.00100232
0.00100241
0.00100249
0.00100256
0.00100263
0.00100269
0.00100274
0.00100279
0.00100283
0.00100286
0.00100289
0.00100291
0.00100292
0.00100293
0.00100294
0.00100293
0.00100292
0.00100291
0.00100288
0.00100285
0.00100282
0.00100278
0.00100273
0.00100268
0.00100261
0.00100255
0.00100247
0.00100239
0.0010023
0.00100221
0.00100211
0.00100199
0.00100188
0.00100175
0.00100161
0.00100147
0.00100131
0.00100115
0.00100098
0.00100079
0.0010006
0.00100039
0.00100018
0.000999947
0.000999705
0.000999449
0.000999179
0.000998894
0.000998593
0.000998275
0.000997939
0.000997586
0.000997213
0.000996819
0.000996403
0.000995963
0.000995497
0.000995004
0.000994483
0.000993931
0.000993346
0.000992727
0.000992069
0.000991369
0.000990625
0.000989833
0.00098899
0.00098809
0.00098713
0.000986104
0.000985008
0.000983833
0.000982573
0.000981222
0.000979771
0.000978212
0.000976533
0.000974725
0.000972776
0.000970674
0.000968405
0.000965955
0.000963307
0.000960446
0.000957354
0.000954013
0.000950404
0.000946507
0.000942303
0.000937772
0.000932896
0.000927657
0.000922039
0.00091603
0.000909621
0.000902809
0.000895594
0.000887989
0.000880013
0.000871698
0.000863088
0.000854243
0.000845237
0.000836167
0.000827145
0.000818305
0.000809799
0.000801797
0.000794481
0.00078804
0.000782662
0.000778511
0.000775724
0.000774354
0.000774528
0.000776214
0.00151838
0.00151777
0.00151861
0.00152094
0.0015245
0.00152918
0.00153485
0.00154135
0.00154852
0.00155621
0.00156427
0.00157257
0.00158098
0.00158939
0.00159771
0.00160587
0.0016138
0.00162145
0.00162878
0.00163577
0.0016424
0.00164867
0.00165457
0.0016601
0.00166527
0.0016701
0.00167459
0.00167877
0.00168265
0.00168624
0.00168957
0.00169265
0.0016955
0.00169814
0.00170058
0.00170284
0.00170493
0.00170686
0.00170866
0.00171032
0.00171186
0.00171329
0.00171462
0.00171585
0.00171701
0.00171808
0.00171908
0.00172002
0.00172089
0.00172171
0.00172248
0.00172319
0.00172387
0.0017245
0.0017251
0.00172566
0.00172619
0.00172668
0.00172715
0.00172759
0.00172801
0.00172841
0.00172878
0.00172913
0.00172946
0.00172978
0.00173007
0.00173035
0.00173062
0.00173087
0.00173111
0.00173133
0.00173154
0.00173174
0.00173193
0.00173211
0.00173228
0.00173243
0.00173258
0.00173272
0.00173285
0.00173297
0.00173308
0.00173319
0.00173328
0.00173337
0.00173345
0.00173353
0.00173359
0.00173365
0.00173371
0.00173376
0.0017338
0.00173383
0.00173386
0.00173388
0.00173389
0.0017339
0.0017339
0.0017339
0.00173389
0.00173387
0.00173385
0.00173382
0.00173379
0.00173375
0.0017337
0.00173364
0.00173358
0.00173351
0.00173344
0.00173336
0.00173327
0.00173317
0.00173307
0.00173296
0.00173284
0.00173271
0.00173257
0.00173243
0.00173227
0.00173211
0.00173193
0.00173175
0.00173155
0.00173135
0.00173113
0.0017309
0.00173065
0.0017304
0.00173012
0.00172984
0.00172953
0.00172921
0.00172888
0.00172852
0.00172814
0.00172775
0.00172732
0.00172688
0.00172641
0.00172591
0.00172539
0.00172483
0.00172424
0.00172361
0.00172294
0.00172223
0.00172148
0.00172068
0.00171982
0.00171891
0.00171794
0.00171689
0.00171578
0.00171458
0.0017133
0.00171192
0.00171045
0.00170885
0.00170714
0.0017053
0.00170331
0.00170116
0.00169884
0.00169634
0.00169363
0.00169071
0.00168755
0.00168413
0.00168045
0.00167647
0.00167218
0.00166757
0.0016626
0.00165727
0.00165157
0.00164547
0.00163898
0.00163208
0.00162479
0.00161711
0.00160907
0.00160068
0.001592
0.00158309
0.001574
0.00156483
0.00155568
0.00154666
0.00153792
0.0015296
0.00152187
0.00151489
0.00150884
0.00150387
0.00150014
0.00149776
0.00149702
0.00149804
0.00246624
0.00246694
0.00246906
0.00247266
0.0024774
0.00248314
0.00248972
0.002497
0.00250483
0.00251307
0.00252159
0.00253027
0.002539
0.00254768
0.00255623
0.00256459
0.0025727
0.0025805
0.00258798
0.00259511
0.00260187
0.00260826
0.00261427
0.0026199
0.00262518
0.0026301
0.00263468
0.00263894
0.0026429
0.00264656
0.00264996
0.0026531
0.00265601
0.00265869
0.00266118
0.00266348
0.00266561
0.00266757
0.0026694
0.00267108
0.00267265
0.0026741
0.00267545
0.0026767
0.00267787
0.00267896
0.00267997
0.00268092
0.0026818
0.00268263
0.0026834
0.00268413
0.00268481
0.00268544
0.00268604
0.00268661
0.00268714
0.00268764
0.00268811
0.00268856
0.00268898
0.00268938
0.00268975
0.0026901
0.00269044
0.00269075
0.00269105
0.00269133
0.0026916
0.00269185
0.00269209
0.00269232
0.00269253
0.00269273
0.00269292
0.0026931
0.00269326
0.00269342
0.00269357
0.00269371
0.00269384
0.00269396
0.00269407
0.00269418
0.00269427
0.00269436
0.00269445
0.00269452
0.00269459
0.00269465
0.0026947
0.00269475
0.00269479
0.00269482
0.00269485
0.00269487
0.00269489
0.0026949
0.0026949
0.00269489
0.00269488
0.00269487
0.00269484
0.00269482
0.00269478
0.00269474
0.00269469
0.00269464
0.00269458
0.00269451
0.00269443
0.00269435
0.00269426
0.00269417
0.00269406
0.00269395
0.00269383
0.0026937
0.00269356
0.00269342
0.00269326
0.0026931
0.00269292
0.00269274
0.00269254
0.00269233
0.00269211
0.00269188
0.00269164
0.00269138
0.0026911
0.00269081
0.00269051
0.00269019
0.00268985
0.00268949
0.00268911
0.00268871
0.00268829
0.00268784
0.00268737
0.00268687
0.00268634
0.00268578
0.00268518
0.00268455
0.00268388
0.00268316
0.0026824
0.00268159
0.00268073
0.00267981
0.00267882
0.00267777
0.00267664
0.00267543
0.00267413
0.00267274
0.00267124
0.00266962
0.00266788
0.00266601
0.00266398
0.0026618
0.00265944
0.00265689
0.00265413
0.00265115
0.00264793
0.00264445
0.00264069
0.00263663
0.00263226
0.00262755
0.00262249
0.00261706
0.00261124
0.00260503
0.00259841
0.00259139
0.00258396
0.00257613
0.00256793
0.00255937
0.0025505
0.00254136
0.00253202
0.00252256
0.00251306
0.00250364
0.0024944
0.00248549
0.00247705
0.00246923
0.0024622
0.0024561
0.00245112
0.0024474
0.00244531
0.00244505
0.00362854
0.00363112
0.00363495
0.00364016
0.00364637
0.00365344
0.00366121
0.00366952
0.00367826
0.00368728
0.00369646
0.00370572
0.00371494
0.00372405
0.00373297
0.00374165
0.00375004
0.0037581
0.0037658
0.00377312
0.00378006
0.0037866
0.00379275
0.00379852
0.00380391
0.00380893
0.00381361
0.00381796
0.00382199
0.00382573
0.00382918
0.00383238
0.00383534
0.00383807
0.0038406
0.00384293
0.00384509
0.00384708
0.00384892
0.00385063
0.00385221
0.00385368
0.00385504
0.00385631
0.00385748
0.00385858
0.0038596
0.00386055
0.00386144
0.00386227
0.00386305
0.00386377
0.00386446
0.0038651
0.0038657
0.00386627
0.0038668
0.0038673
0.00386778
0.00386822
0.00386864
0.00386904
0.00386942
0.00386977
0.00387011
0.00387042
0.00387072
0.003871
0.00387127
0.00387152
0.00387176
0.00387199
0.0038722
0.0038724
0.00387259
0.00387277
0.00387294
0.0038731
0.00387324
0.00387338
0.00387351
0.00387363
0.00387375
0.00387385
0.00387395
0.00387404
0.00387412
0.00387419
0.00387426
0.00387432
0.00387438
0.00387442
0.00387446
0.0038745
0.00387452
0.00387455
0.00387456
0.00387457
0.00387457
0.00387457
0.00387456
0.00387454
0.00387452
0.00387449
0.00387446
0.00387441
0.00387437
0.00387431
0.00387425
0.00387418
0.00387411
0.00387403
0.00387394
0.00387384
0.00387374
0.00387362
0.0038735
0.00387337
0.00387324
0.00387309
0.00387293
0.00387277
0.00387259
0.00387241
0.00387221
0.003872
0.00387178
0.00387155
0.00387131
0.00387105
0.00387077
0.00387048
0.00387018
0.00386986
0.00386952
0.00386916
0.00386878
0.00386838
0.00386796
0.00386751
0.00386703
0.00386653
0.003866
0.00386544
0.00386484
0.0038642
0.00386353
0.00386281
0.00386205
0.00386123
0.00386037
0.00385944
0.00385845
0.00385739
0.00385625
0.00385503
0.00385372
0.00385231
0.0038508
0.00384917
0.00384741
0.00384551
0.00384346
0.00384125
0.00383886
0.00383627
0.00383347
0.00383044
0.00382716
0.00382362
0.00381979
0.00381566
0.0038112
0.00380639
0.00380123
0.00379568
0.00378973
0.00378338
0.0037766
0.00376941
0.00376178
0.00375374
0.0037453
0.00373647
0.00372729
0.0037178
0.00370806
0.00369814
0.0036881
0.00367805
0.00366809
0.00365834
0.00364893
0.00363999
0.00363168
0.00362416
0.0036176
0.00361216
0.00360826
0.00360613
0.00499202
0.00499698
0.00500292
0.00501007
0.00501804
0.0050267
0.00503589
0.00504546
0.00505531
0.0050653
0.00507534
0.00508533
0.0050952
0.00510487
0.00511428
0.00512338
0.00513214
0.00514052
0.0051485
0.00515608
0.00516323
0.00516997
0.00517629
0.0051822
0.00518772
0.00519286
0.00519764
0.00520208
0.00520619
0.00520999
0.0052135
0.00521675
0.00521975
0.00522252
0.00522508
0.00522744
0.00522961
0.00523163
0.00523349
0.00523521
0.0052368
0.00523827
0.00523964
0.00524091
0.00524209
0.00524319
0.00524421
0.00524516
0.00524605
0.00524689
0.00524766
0.00524839
0.00524908
0.00524972
0.00525032
0.00525088
0.00525142
0.00525192
0.00525239
0.00525284
0.00525326
0.00525365
0.00525403
0.00525438
0.00525472
0.00525503
0.00525533
0.00525562
0.00525588
0.00525613
0.00525637
0.0052566
0.00525681
0.00525701
0.0052572
0.00525738
0.00525755
0.0052577
0.00525785
0.00525799
0.00525812
0.00525824
0.00525835
0.00525846
0.00525856
0.00525864
0.00525873
0.0052588
0.00525887
0.00525893
0.00525898
0.00525903
0.00525907
0.0052591
0.00525913
0.00525915
0.00525917
0.00525918
0.00525918
0.00525918
0.00525917
0.00525915
0.00525913
0.0052591
0.00525906
0.00525902
0.00525897
0.00525892
0.00525886
0.00525879
0.00525871
0.00525863
0.00525854
0.00525845
0.00525834
0.00525823
0.00525811
0.00525798
0.00525784
0.0052577
0.00525754
0.00525738
0.0052572
0.00525702
0.00525682
0.00525661
0.00525639
0.00525616
0.00525592
0.00525566
0.00525538
0.00525509
0.00525479
0.00525447
0.00525413
0.00525377
0.00525339
0.00525299
0.00525257
0.00525212
0.00525165
0.00525115
0.00525062
0.00525005
0.00524946
0.00524882
0.00524815
0.00524743
0.00524667
0.00524585
0.00524498
0.00524406
0.00524306
0.005242
0.00524086
0.00523964
0.00523832
0.00523691
0.00523539
0.00523375
0.00523198
0.00523007
0.005228
0.00522576
0.00522335
0.00522073
0.00521789
0.00521482
0.00521149
0.00520789
0.005204
0.00519979
0.00519525
0.00519035
0.00518507
0.00517939
0.0051733
0.00516678
0.00515982
0.00515241
0.00514455
0.00513623
0.00512747
0.00511829
0.00510871
0.00509876
0.00508848
0.00507795
0.00506721
0.00505636
0.00504547
0.00503467
0.00502405
0.00501375
0.00500391
0.00499468
0.00498623
0.00497872
0.00497257
0.00496801
0.00654141
0.00654918
0.00655758
0.00656694
0.00657693
0.0065874
0.00659821
0.00660924
0.00662037
0.0066315
0.00664253
0.0066534
0.00666404
0.00667437
0.00668437
0.00669398
0.00670318
0.00671195
0.00672027
0.00672813
0.00673554
0.00674249
0.006749
0.00675508
0.00676074
0.006766
0.00677089
0.00677541
0.00677959
0.00678346
0.00678703
0.00679032
0.00679335
0.00679615
0.00679873
0.00680111
0.0068033
0.00680533
0.00680719
0.00680892
0.00681052
0.00681199
0.00681336
0.00681463
0.00681581
0.0068169
0.00681792
0.00681887
0.00681976
0.00682059
0.00682136
0.00682209
0.00682277
0.00682341
0.00682401
0.00682457
0.0068251
0.0068256
0.00682607
0.00682651
0.00682693
0.00682733
0.0068277
0.00682805
0.00682838
0.0068287
0.006829
0.00682928
0.00682954
0.00682979
0.00683003
0.00683026
0.00683047
0.00683067
0.00683086
0.00683103
0.0068312
0.00683136
0.0068315
0.00683164
0.00683177
0.00683189
0.006832
0.00683211
0.00683221
0.00683229
0.00683238
0.00683245
0.00683252
0.00683258
0.00683263
0.00683268
0.00683272
0.00683275
0.00683278
0.0068328
0.00683282
0.00683282
0.00683283
0.00683282
0.00683281
0.0068328
0.00683277
0.00683275
0.00683271
0.00683267
0.00683262
0.00683257
0.00683251
0.00683244
0.00683236
0.00683228
0.00683219
0.0068321
0.00683199
0.00683188
0.00683176
0.00683163
0.0068315
0.00683135
0.00683119
0.00683103
0.00683086
0.00683067
0.00683047
0.00683027
0.00683005
0.00682982
0.00682957
0.00682932
0.00682904
0.00682876
0.00682845
0.00682813
0.0068278
0.00682744
0.00682706
0.00682666
0.00682624
0.0068258
0.00682533
0.00682483
0.0068243
0.00682374
0.00682314
0.00682251
0.00682184
0.00682113
0.00682037
0.00681956
0.00681869
0.00681777
0.00681678
0.00681572
0.00681458
0.00681336
0.00681205
0.00681064
0.00680911
0.00680747
0.00680569
0.00680378
0.0068017
0.00679945
0.00679702
0.00679437
0.00679151
0.00678841
0.00678504
0.00678139
0.00677744
0.00677316
0.00676853
0.00676353
0.00675813
0.00675232
0.00674607
0.00673937
0.0067322
0.00672455
0.00671641
0.00670777
0.00669864
0.00668904
0.00667897
0.00666846
0.00665755
0.00664628
0.0066347
0.00662289
0.00661092
0.00659888
0.00658687
0.006575
0.0065634
0.00655221
0.00654159
0.0065317
0.00652292
0.00651547
0.00825971
0.00827062
0.00828175
0.00829356
0.00830577
0.00831823
0.00833084
0.00834346
0.00835601
0.0083684
0.00838055
0.0083924
0.0084039
0.00841499
0.00842564
0.00843583
0.00844552
0.00845472
0.00846341
0.0084716
0.00847928
0.00848648
0.00849319
0.00849944
0.00850525
0.00851064
0.00851562
0.00852023
0.00852449
0.00852841
0.00853203
0.00853535
0.00853842
0.00854124
0.00854383
0.00854622
0.00854842
0.00855045
0.00855232
0.00855404
0.00855563
0.00855711
0.00855847
0.00855973
0.0085609
0.00856199
0.008563
0.00856395
0.00856483
0.00856565
0.00856642
0.00856713
0.00856781
0.00856844
0.00856903
0.00856959
0.00857012
0.00857061
0.00857108
0.00857152
0.00857193
0.00857232
0.00857269
0.00857304
0.00857337
0.00857369
0.00857398
0.00857426
0.00857452
0.00857477
0.00857501
0.00857523
0.00857544
0.00857564
0.00857583
0.00857601
0.00857617
0.00857633
0.00857647
0.00857661
0.00857674
0.00857686
0.00857697
0.00857707
0.00857717
0.00857726
0.00857734
0.00857741
0.00857748
0.00857754
0.00857759
0.00857764
0.00857768
0.00857771
0.00857774
0.00857776
0.00857778
0.00857779
0.00857779
0.00857778
0.00857777
0.00857776
0.00857774
0.00857771
0.00857767
0.00857763
0.00857758
0.00857753
0.00857747
0.0085774
0.00857733
0.00857725
0.00857716
0.00857706
0.00857696
0.00857685
0.00857673
0.0085766
0.00857646
0.00857632
0.00857616
0.008576
0.00857583
0.00857564
0.00857545
0.00857524
0.00857503
0.0085748
0.00857455
0.0085743
0.00857403
0.00857374
0.00857344
0.00857312
0.00857279
0.00857243
0.00857206
0.00857167
0.00857125
0.00857081
0.00857034
0.00856984
0.00856932
0.00856876
0.00856818
0.00856755
0.00856688
0.00856618
0.00856542
0.00856462
0.00856376
0.00856284
0.00856186
0.00856081
0.00855968
0.00855847
0.00855716
0.00855576
0.00855424
0.0085526
0.00855083
0.00854891
0.00854684
0.00854458
0.00854214
0.00853948
0.0085366
0.00853347
0.00853007
0.00852638
0.00852238
0.00851803
0.00851332
0.00850822
0.00850271
0.00849676
0.00849035
0.00848345
0.00847606
0.00846814
0.00845969
0.00845069
0.00844115
0.00843107
0.00842045
0.00840931
0.00839768
0.00838558
0.00837307
0.00836019
0.008347
0.00833359
0.00832003
0.00830642
0.00829288
0.00827953
0.00826652
0.00825397
0.00824225
0.00823156
0.0101285
0.0101428
0.0101568
0.0101713
0.0101858
0.0102004
0.0102149
0.0102293
0.0102433
0.0102571
0.0102704
0.0102833
0.0102957
0.0103076
0.010319
0.0103298
0.01034
0.0103497
0.0103588
0.0103673
0.0103753
0.0103827
0.0103897
0.0103961
0.010402
0.0104075
0.0104126
0.0104173
0.0104216
0.0104256
0.0104293
0.0104326
0.0104357
0.0104385
0.0104411
0.0104435
0.0104457
0.0104478
0.0104496
0.0104513
0.0104529
0.0104544
0.0104557
0.010457
0.0104581
0.0104592
0.0104602
0.0104612
0.010462
0.0104628
0.0104636
0.0104643
0.010465
0.0104656
0.0104662
0.0104667
0.0104672
0.0104677
0.0104682
0.0104686
0.010469
0.0104694
0.0104698
0.0104701
0.0104705
0.0104708
0.0104711
0.0104713
0.0104716
0.0104718
0.0104721
0.0104723
0.0104725
0.0104727
0.0104729
0.0104731
0.0104732
0.0104734
0.0104735
0.0104737
0.0104738
0.0104739
0.010474
0.0104741
0.0104742
0.0104743
0.0104744
0.0104745
0.0104745
0.0104746
0.0104746
0.0104747
0.0104747
0.0104748
0.0104748
0.0104748
0.0104748
0.0104748
0.0104748
0.0104748
0.0104748
0.0104748
0.0104748
0.0104748
0.0104747
0.0104747
0.0104746
0.0104746
0.0104745
0.0104744
0.0104744
0.0104743
0.0104742
0.0104741
0.010474
0.0104739
0.0104738
0.0104737
0.0104735
0.0104734
0.0104732
0.0104731
0.0104729
0.0104727
0.0104725
0.0104723
0.0104721
0.0104719
0.0104716
0.0104714
0.0104711
0.0104708
0.0104705
0.0104702
0.0104699
0.0104695
0.0104692
0.0104688
0.0104684
0.0104679
0.0104675
0.010467
0.0104664
0.0104659
0.0104653
0.0104647
0.010464
0.0104633
0.0104626
0.0104618
0.010461
0.0104601
0.0104591
0.010458
0.0104569
0.0104557
0.0104544
0.010453
0.0104515
0.0104499
0.0104482
0.0104462
0.0104442
0.0104419
0.0104395
0.0104368
0.0104339
0.0104308
0.0104274
0.0104236
0.0104196
0.0104152
0.0104104
0.0104052
0.0103996
0.0103935
0.0103869
0.0103798
0.0103722
0.010364
0.0103552
0.0103458
0.0103359
0.0103253
0.0103141
0.0103022
0.0102898
0.0102768
0.0102633
0.0102493
0.0102348
0.0102199
0.0102047
0.0101892
0.0101736
0.0101579
0.0101424
0.010127
0.0101121
0.0100979
0.0121282
0.0121459
0.012163
0.0121802
0.0121972
0.012214
0.0122305
0.0122466
0.0122622
0.0122774
0.012292
0.012306
0.0123193
0.0123321
0.0123442
0.0123556
0.0123664
0.0123766
0.0123861
0.0123949
0.0124032
0.0124109
0.012418
0.0124246
0.0124307
0.0124364
0.0124415
0.0124463
0.0124507
0.0124547
0.0124584
0.0124618
0.0124649
0.0124677
0.0124703
0.0124727
0.0124749
0.0124769
0.0124787
0.0124804
0.012482
0.0124834
0.0124848
0.012486
0.0124871
0.0124882
0.0124892
0.0124901
0.012491
0.0124918
0.0124925
0.0124932
0.0124938
0.0124945
0.012495
0.0124956
0.0124961
0.0124966
0.012497
0.0124974
0.0124979
0.0124982
0.0124986
0.0124989
0.0124993
0.0124996
0.0124998
0.0125001
0.0125004
0.0125006
0.0125009
0.0125011
0.0125013
0.0125015
0.0125017
0.0125018
0.012502
0.0125021
0.0125023
0.0125024
0.0125025
0.0125027
0.0125028
0.0125029
0.012503
0.0125031
0.0125031
0.0125032
0.0125033
0.0125033
0.0125034
0.0125034
0.0125035
0.0125035
0.0125035
0.0125036
0.0125036
0.0125036
0.0125036
0.0125036
0.0125036
0.0125035
0.0125035
0.0125035
0.0125035
0.0125034
0.0125034
0.0125033
0.0125033
0.0125032
0.0125031
0.012503
0.012503
0.0125029
0.0125028
0.0125026
0.0125025
0.0125024
0.0125023
0.0125021
0.012502
0.0125018
0.0125016
0.0125015
0.0125013
0.0125011
0.0125009
0.0125006
0.0125004
0.0125001
0.0124999
0.0124996
0.0124993
0.012499
0.0124987
0.0124983
0.012498
0.0124976
0.0124972
0.0124967
0.0124963
0.0124958
0.0124953
0.0124948
0.0124942
0.0124936
0.0124929
0.0124922
0.0124915
0.0124907
0.0124899
0.012489
0.0124881
0.012487
0.0124859
0.0124848
0.0124835
0.0124821
0.0124806
0.012479
0.0124773
0.0124754
0.0124733
0.0124711
0.0124687
0.012466
0.0124631
0.01246
0.0124565
0.0124528
0.0124487
0.0124442
0.0124394
0.0124341
0.0124284
0.0124222
0.0124154
0.0124081
0.0124003
0.0123918
0.0123827
0.0123729
0.0123625
0.0123514
0.0123395
0.012327
0.0123138
0.0122999
0.0122853
0.01227
0.0122542
0.0122378
0.0122208
0.0122034
0.0121856
0.0121676
0.0121493
0.012131
0.0121128
0.0120949
0.0142383
0.0142597
0.0142799
0.0142998
0.0143193
0.0143383
0.0143568
0.0143747
0.0143919
0.0144085
0.0144243
0.0144394
0.0144538
0.0144674
0.0144802
0.0144923
0.0145036
0.0145142
0.0145241
0.0145334
0.0145419
0.0145499
0.0145572
0.014564
0.0145702
0.0145759
0.0145812
0.014586
0.0145904
0.0145945
0.0145982
0.0146016
0.0146047
0.0146075
0.0146101
0.0146125
0.0146146
0.0146166
0.0146184
0.0146201
0.0146217
0.0146231
0.0146244
0.0146256
0.0146267
0.0146278
0.0146287
0.0146296
0.0146305
0.0146312
0.014632
0.0146327
0.0146333
0.0146339
0.0146345
0.014635
0.0146355
0.014636
0.0146364
0.0146368
0.0146372
0.0146376
0.0146379
0.0146383
0.0146386
0.0146389
0.0146392
0.0146394
0.0146397
0.0146399
0.0146402
0.0146404
0.0146406
0.0146408
0.0146409
0.0146411
0.0146413
0.0146414
0.0146416
0.0146417
0.0146418
0.0146419
0.0146421
0.0146422
0.0146422
0.0146423
0.0146424
0.0146425
0.0146425
0.0146426
0.0146427
0.0146427
0.0146427
0.0146428
0.0146428
0.0146428
0.0146428
0.0146428
0.0146428
0.0146428
0.0146428
0.0146428
0.0146428
0.0146428
0.0146427
0.0146427
0.0146426
0.0146426
0.0146425
0.0146425
0.0146424
0.0146423
0.0146422
0.0146421
0.014642
0.0146419
0.0146418
0.0146417
0.0146416
0.0146414
0.0146413
0.0146411
0.0146409
0.0146408
0.0146406
0.0146404
0.0146402
0.0146399
0.0146397
0.0146395
0.0146392
0.0146389
0.0146386
0.0146383
0.014638
0.0146377
0.0146373
0.0146369
0.0146365
0.0146361
0.0146357
0.0146352
0.0146347
0.0146342
0.0146336
0.014633
0.0146324
0.0146317
0.014631
0.0146302
0.0146294
0.0146285
0.0146276
0.0146266
0.0146255
0.0146244
0.0146231
0.0146218
0.0146203
0.0146187
0.014617
0.0146151
0.0146131
0.0146109
0.0146085
0.0146058
0.014603
0.0145998
0.0145964
0.0145926
0.0145885
0.014584
0.0145791
0.0145738
0.0145679
0.0145616
0.0145547
0.0145472
0.0145391
0.0145304
0.014521
0.0145108
0.0144999
0.0144883
0.0144758
0.0144626
0.0144485
0.0144337
0.014418
0.0144016
0.0143843
0.0143664
0.0143477
0.0143283
0.0143084
0.0142879
0.0142669
0.0142455
0.014224
0.0142024
0.0164382
0.0164631
0.0164863
0.0165089
0.0165309
0.0165521
0.0165726
0.0165922
0.016611
0.016629
0.0166461
0.0166622
0.0166775
0.016692
0.0167055
0.0167182
0.0167301
0.0167412
0.0167515
0.016761
0.0167699
0.016778
0.0167856
0.0167925
0.0167988
0.0168046
0.01681
0.0168149
0.0168193
0.0168234
0.0168271
0.0168305
0.0168336
0.0168364
0.0168389
0.0168413
0.0168434
0.0168454
0.0168472
0.0168488
0.0168503
0.0168517
0.016853
0.0168542
0.0168553
0.0168563
0.0168573
0.0168581
0.0168589
0.0168597
0.0168604
0.0168611
0.0168617
0.0168623
0.0168628
0.0168633
0.0168638
0.0168643
0.0168647
0.0168651
0.0168655
0.0168659
0.0168662
0.0168666
0.0168669
0.0168672
0.0168674
0.0168677
0.0168679
0.0168682
0.0168684
0.0168686
0.0168688
0.016869
0.0168692
0.0168693
0.0168695
0.0168697
0.0168698
0.0168699
0.01687
0.0168702
0.0168703
0.0168704
0.0168705
0.0168705
0.0168706
0.0168707
0.0168708
0.0168708
0.0168709
0.0168709
0.0168709
0.016871
0.016871
0.016871
0.016871
0.016871
0.016871
0.016871
0.016871
0.016871
0.016871
0.016871
0.0168709
0.0168709
0.0168708
0.0168708
0.0168707
0.0168707
0.0168706
0.0168705
0.0168704
0.0168703
0.0168702
0.0168701
0.01687
0.0168699
0.0168698
0.0168696
0.0168695
0.0168693
0.0168692
0.016869
0.0168688
0.0168686
0.0168684
0.0168682
0.016868
0.0168677
0.0168675
0.0168672
0.0168669
0.0168666
0.0168663
0.016866
0.0168656
0.0168652
0.0168648
0.0168644
0.016864
0.0168635
0.0168631
0.0168625
0.016862
0.0168614
0.0168608
0.0168601
0.0168594
0.0168587
0.0168579
0.0168571
0.0168561
0.0168552
0.0168541
0.016853
0.0168518
0.0168504
0.016849
0.0168475
0.0168458
0.0168439
0.0168419
0.0168398
0.0168374
0.0168348
0.0168319
0.0168288
0.0168253
0.0168216
0.0168175
0.0168129
0.016808
0.0168026
0.0167967
0.0167902
0.0167832
0.0167756
0.0167673
0.0167583
0.0167485
0.016738
0.0167267
0.0167145
0.0167015
0.0166875
0.0166727
0.0166569
0.0166402
0.0166225
0.016604
0.0165845
0.016564
0.0165427
0.0165206
0.0164977
0.016474
0.0164497
0.0164248
0.0163995
0.0187068
0.0187351
0.0187613
0.0187866
0.0188109
0.0188342
0.0188566
0.0188779
0.0188983
0.0189175
0.0189358
0.018953
0.0189692
0.0189844
0.0189987
0.019012
0.0190243
0.0190358
0.0190465
0.0190564
0.0190654
0.0190738
0.0190815
0.0190885
0.019095
0.0191009
0.0191063
0.0191112
0.0191156
0.0191197
0.0191234
0.0191268
0.0191299
0.0191326
0.0191352
0.0191375
0.0191396
0.0191415
0.0191433
0.0191449
0.0191464
0.0191477
0.019149
0.0191501
0.0191512
0.0191522
0.0191531
0.0191539
0.0191547
0.0191555
0.0191561
0.0191568
0.0191574
0.019158
0.0191585
0.019159
0.0191595
0.0191599
0.0191603
0.0191607
0.0191611
0.0191615
0.0191618
0.0191621
0.0191624
0.0191627
0.019163
0.0191632
0.0191635
0.0191637
0.0191639
0.0191641
0.0191643
0.0191645
0.0191647
0.0191649
0.019165
0.0191652
0.0191653
0.0191654
0.0191655
0.0191656
0.0191658
0.0191658
0.0191659
0.019166
0.0191661
0.0191662
0.0191662
0.0191663
0.0191663
0.0191664
0.0191664
0.0191665
0.0191665
0.0191665
0.0191665
0.0191665
0.0191665
0.0191665
0.0191665
0.0191665
0.0191665
0.0191664
0.0191664
0.0191664
0.0191663
0.0191663