/*--------------------------------*- C++ -*----------------------------------*\
| =========                 |                                                 |
| \\      /  F ield         | OpenFOAM: The Open Source CFD Toolbox           |
|  \\    /   O peration     | Version:  2412                                  |
|   \\  /    A nd           | Website:  www.openfoam.com                      |
|    \\/     M anipulation  |                                                 |
\*---------------------------------------------------------------------------*/
FoamFile
{
    version     2.0;
    format      ascii;
    arch        "LSB;label=32;scalar=64";
    class       surfaceScalarField;
    location    "500";
    object      phi;
}
// * * * * * * * * * * * * * * * * * * * * * * * * * * * * * * * * * * * * * //

dimensions      [0 3 -1 0 0 0 0];

oriented        oriented;

internalField   nonuniform List<scalar> 
79600
(
-5.87848e-13
5.77875e-13
-3.56013e-12
2.97233e-12
-8.42536e-12
4.86586e-12
-1.43657e-11
5.94084e-12
-2.06848e-11
6.31921e-12
-2.68636e-11
6.17945e-12
-3.25516e-11
5.68851e-12
-3.75313e-11
4.97943e-12
-4.16833e-11
4.1529e-12
-4.49663e-11
3.28217e-12
-4.73863e-11
2.42063e-12
-4.89904e-11
1.60358e-12
-4.98453e-11
8.55234e-13
-5.0034e-11
1.89029e-13
-4.96457e-11
-3.88262e-13
-4.87716e-11
-8.74763e-13
-4.74988e-11
-1.27283e-12
-4.59105e-11
-1.58809e-12
-4.40827e-11
-1.82779e-12
-4.20831e-11
-1.99977e-12
-3.99711e-11
-2.11232e-12
-3.77977e-11
-2.17402e-12
-3.56049e-11
-2.19286e-12
-3.34279e-11
-2.17696e-12
-3.12946e-11
-2.1334e-12
-2.92268e-11
-2.0681e-12
-2.724e-11
-1.98652e-12
-2.53462e-11
-1.89382e-12
-2.35525e-11
-1.79367e-12
-2.18631e-11
-1.68944e-12
-2.02795e-11
-1.58379e-12
-1.8801e-11
-1.47865e-12
-1.74252e-11
-1.37561e-12
-1.6149e-11
-1.27626e-12
-1.49675e-11
-1.18112e-12
-1.38759e-11
-1.091e-12
-1.28696e-11
-1.00649e-12
-1.19419e-11
-9.27194e-13
-1.10889e-11
-8.5376e-13
-1.03033e-11
-7.85038e-13
-9.58212e-12
-7.22277e-13
-8.91775e-12
-6.63551e-13
-8.30729e-12
-6.10316e-13
-7.74616e-12
-5.61708e-13
-7.229e-12
-5.16751e-13
-6.7534e-12
-4.76053e-13
-6.31548e-12
-4.38748e-13
-5.91079e-12
-4.0427e-13
-5.53708e-12
-3.73193e-13
-5.19211e-12
-3.45185e-13
-4.87294e-12
-3.19366e-13
-4.57709e-12
-2.95631e-13
-4.30272e-12
-2.74201e-13
-4.04791e-12
-2.54827e-13
-3.81094e-12
-2.37128e-13
-3.59031e-12
-2.20897e-13
-3.38462e-12
-2.05999e-13
-3.19244e-12
-1.92282e-13
-3.01265e-12
-1.79669e-13
-2.84431e-12
-1.68135e-13
-2.6865e-12
-1.57643e-13
-2.5383e-12
-1.48113e-13
-2.3989e-12
-1.39447e-13
-2.26767e-12
-1.31468e-13
-2.14397e-12
-1.23981e-13
-2.02714e-12
-1.16904e-13
-1.91655e-12
-1.10349e-13
-1.81175e-12
-1.04467e-13
-1.71243e-12
-9.92248e-14
-1.61824e-12
-9.43964e-14
-1.52873e-12
-8.98034e-14
-1.44342e-12
-8.54196e-14
-1.36194e-12
-8.13466e-14
-1.28404e-12
-7.76897e-14
-1.20957e-12
-7.43926e-14
-1.13834e-12
-7.13286e-14
-1.07003e-12
-6.83903e-14
-1.00438e-12
-6.56509e-14
-9.41123e-13
-6.31244e-14
-8.80158e-13
-6.08441e-14
-8.21304e-13
-5.87546e-14
-7.64408e-13
-5.68489e-14
-7.093e-13
-5.51197e-14
-6.55851e-13
-5.35174e-14
-6.03965e-13
-5.19768e-14
-5.53459e-13
-5.04769e-14
-5.04137e-13
-4.91228e-14
-4.55886e-13
-4.80393e-14
-4.08675e-13
-4.719e-14
-3.62447e-13
-4.6419e-14
-3.17063e-13
-4.56362e-14
-2.72369e-13
-4.48587e-14
-2.28264e-13
-4.41396e-14
-1.84673e-13
-4.35209e-14
-1.41491e-13
-4.30361e-14
-9.86076e-14
-4.27188e-14
-5.5965e-14
-4.25752e-14
-1.35226e-14
-4.25399e-14
2.88048e-14
-4.25256e-14
7.11341e-14
-4.25215e-14
1.13554e-13
-4.25797e-14
1.56127e-13
-4.27116e-14
1.98949e-13
-4.2901e-14
2.42164e-13
-4.31947e-14
2.85871e-13
-4.36654e-14
3.30101e-13
-4.42916e-14
3.74884e-13
-4.49661e-14
4.20327e-13
-4.56243e-14
4.66603e-13
-4.63404e-14
5.13846e-13
-4.72568e-14
5.62108e-13
-4.83994e-14
6.11452e-13
-4.9637e-14
6.62031e-13
-5.08531e-14
7.14024e-13
-5.20803e-14
7.6758e-13
-5.34499e-14
8.22791e-13
-5.50547e-14
8.79734e-13
-5.68635e-14
9.38533e-13
-5.88014e-14
9.99378e-13
-6.08492e-14
1.06249e-12
-6.30481e-14
1.1281e-12
-6.54558e-14
1.19639e-12
-6.81152e-14
1.26749e-12
-7.1021e-14
1.34157e-12
-7.41189e-14
1.41888e-12
-7.7367e-14
1.49978e-12
-8.08172e-14
1.58456e-12
-8.46011e-14
1.6735e-12
-8.88075e-14
1.76685e-12
-9.34079e-14
1.86497e-12
-9.8308e-14
1.96829e-12
-1.03477e-13
2.07725e-12
-1.08993e-13
2.19228e-12
-1.14946e-13
2.3139e-12
-1.21423e-13
2.44268e-12
-1.28567e-13
2.57917e-12
-1.36493e-13
2.72398e-12
-1.45156e-13
2.87777e-12
-1.54382e-13
3.04141e-12
-1.64106e-13
3.21588e-12
-1.74535e-13
3.40214e-12
-1.85974e-13
3.60121e-12
-1.98614e-13
3.81424e-12
-2.12612e-13
4.04248e-12
-2.28145e-13
4.28721e-12
-2.45218e-13
4.54995e-12
-2.63664e-13
4.83252e-12
-2.83424e-13
5.13701e-12
-3.04777e-13
5.46558e-12
-3.28217e-13
5.8204e-12
-3.54155e-13
6.2039e-12
-3.82846e-13
6.61891e-12
-4.14522e-13
7.06852e-12
-4.49378e-13
7.55598e-12
-4.87582e-13
8.08483e-12
-5.293e-13
8.65907e-12
-5.74775e-13
9.28313e-12
-6.24429e-13
9.96161e-12
-6.78716e-13
1.06993e-11
-7.37951e-13
1.15015e-11
-8.02339e-13
1.23736e-11
-8.72099e-13
1.33214e-11
-9.47564e-13
1.4351e-11
-1.02908e-12
1.54683e-11
-1.11674e-12
1.6679e-11
-1.21037e-12
1.79889e-11
-1.3097e-12
1.94033e-11
-1.41431e-12
2.09269e-11
-1.5235e-12
2.25633e-11
-1.63638e-12
2.43146e-11
-1.75152e-12
2.61812e-11
-1.86694e-12
2.81612e-11
-1.98034e-12
3.02496e-11
-2.08874e-12
3.24375e-11
-2.1884e-12
3.47122e-11
-2.27503e-12
3.70552e-11
-2.34333e-12
3.94422e-11
-2.38724e-12
4.18419e-11
-2.39991e-12
4.42153e-11
-2.37355e-12
4.6515e-11
-2.29974e-12
4.86847e-11
-2.16961e-12
5.06587e-11
-1.97396e-12
5.23625e-11
-1.70369e-12
5.37127e-11
-1.3502e-12
5.46188e-11
-9.06133e-13
5.49848e-11
-3.66099e-13
5.47126e-11
2.7216e-13
5.37064e-11
1.00637e-12
5.18781e-11
1.82842e-12
4.9156e-11
2.72227e-12
4.54944e-11
3.66147e-12
4.08885e-11
4.60586e-12
3.5391e-11
5.49748e-12
2.91359e-11
6.25526e-12
2.23666e-11
6.76929e-12
1.54706e-11
6.89558e-12
9.01546e-12
6.45483e-12
3.75849e-12
5.25705e-12
5.80307e-13
3.17926e-12
5.81514e-13
-3.17773e-12
3.75455e-12
-1.1627e-11
1.1424e-11
-2.39349e-11
1.71743e-11
-3.85146e-11
2.05209e-11
-5.39633e-11
2.17674e-11
-6.91668e-11
2.13832e-11
-8.33146e-11
1.98364e-11
-9.58628e-11
1.75268e-11
-1.06485e-10
1.47754e-11
-1.1503e-10
1.18279e-11
-1.21477e-10
8.86817e-12
-1.25902e-10
6.02787e-12
-1.28443e-10
3.39673e-12
-1.29286e-10
1.03173e-12
-1.28636e-10
-1.03679e-12
-1.26712e-10
-2.79832e-12
-1.23728e-10
-4.25582e-12
-1.19893e-10
-5.42388e-12
-1.15396e-10
-6.3238e-12
-1.10414e-10
-6.98187e-12
-1.05099e-10
-7.42677e-12
-9.9585e-11
-7.68716e-12
-9.39861e-11
-7.79147e-12
-8.8396e-11
-7.76678e-12
-8.28906e-11
-7.63788e-12
-7.75305e-11
-7.42769e-12
-7.23615e-11
-7.1558e-12
-6.74164e-11
-6.83899e-12
-6.27181e-11
-6.49193e-12
-5.82805e-11
-6.12718e-12
-5.41097e-11
-5.75437e-12
-5.02065e-11
-5.38156e-12
-4.65675e-11
-5.01515e-12
-4.31847e-11
-4.65937e-12
-4.00483e-11
-4.31803e-12
-3.71466e-11
-3.99312e-12
-3.44666e-11
-3.68696e-12
-3.19944e-11
-3.39909e-12
-2.97165e-11
-3.13142e-12
-2.76192e-11
-2.88255e-12
-2.56889e-11
-2.65235e-12
-2.39128e-11
-2.4399e-12
-2.22787e-11
-2.24469e-12
-2.07745e-11
-2.06559e-12
-1.93894e-11
-1.90145e-12
-1.81137e-11
-1.75168e-12
-1.69378e-11
-1.61485e-12
-1.58528e-11
-1.48962e-12
-1.48509e-11
-1.37545e-12
-1.39245e-11
-1.27143e-12
-1.30673e-11
-1.17657e-12
-1.22733e-11
-1.09008e-12
-1.1537e-11
-1.01113e-12
-1.08528e-11
-9.38971e-13
-1.02165e-11
-8.73166e-13
-9.624e-12
-8.13217e-13
-9.07154e-12
-7.58455e-13
-8.55559e-12
-7.08285e-13
-8.07314e-12
-6.62316e-13
-7.62148e-12
-6.20181e-13
-7.19802e-12
-5.81484e-13
-6.80036e-12
-5.45901e-13
-6.42634e-12
-5.13247e-13
-6.07408e-12
-4.83355e-13
-5.74195e-12
-4.55948e-13
-5.42846e-12
-4.30646e-13
-5.13213e-12
-4.07155e-13
-4.85151e-12
-3.85381e-13
-4.58532e-12
-3.65348e-13
-4.33255e-12
-3.46994e-13
-4.09225e-12
-3.30093e-13
-3.86345e-12
-3.14379e-13
-3.64524e-12
-2.99699e-13
-3.43675e-12
-2.86084e-13
-3.2373e-12
-2.73581e-13
-3.04632e-12
-2.62141e-13
-2.86323e-12
-2.51571e-13
-2.68735e-12
-2.41728e-13
-2.51803e-12
-2.3253e-13
-2.3548e-12
-2.24041e-13
-2.19725e-12
-2.16219e-13
-2.04496e-12
-2.09043e-13
-1.89743e-12
-2.0247e-13
-1.75428e-12
-1.96504e-13
-1.61528e-12
-1.91116e-13
-1.48011e-12
-1.86116e-13
-1.34831e-12
-1.81399e-13
-1.21938e-12
-1.77042e-13
-1.093e-12
-1.73184e-13
-9.69095e-13
-1.69893e-13
-8.47505e-13
-1.67082e-13
-7.27886e-13
-1.64611e-13
-6.09924e-13
-1.62438e-13
-4.93376e-13
-1.60555e-13
-3.7797e-13
-1.58923e-13
-2.63392e-13
-1.57549e-13
-1.49376e-13
-1.56526e-13
-3.57615e-14
-1.55924e-13
7.75717e-14
-1.55716e-13
1.90831e-13
-1.55835e-13
3.0432e-13
-1.56254e-13
4.18294e-13
-1.56976e-13
5.3293e-13
-1.57968e-13
6.48474e-13
-1.59202e-13
7.65259e-13
-1.60726e-13
8.83566e-13
-1.62639e-13
1.00354e-12
-1.6499e-13
1.1253e-12
-1.67705e-13
1.24911e-12
-1.70678e-13
1.37542e-12
-1.73935e-13
1.50459e-12
-1.77614e-13
1.63689e-12
-1.8179e-13
1.77252e-12
-1.86426e-13
1.91176e-12
-1.9146e-13
2.05499e-12
-1.96885e-13
2.20262e-12
-2.02783e-13
2.35503e-12
-2.09246e-13
2.51256e-12
-2.16322e-13
2.67562e-12
-2.24004e-13
2.84471e-12
-2.3226e-13
3.02038e-12
-2.41096e-13
3.2032e-12
-2.50632e-13
3.39367e-12
-2.61043e-13
3.59228e-12
-2.72421e-13
3.79961e-12
-2.84714e-13
4.01639e-12
-2.97853e-13
4.24348e-12
-3.11909e-13
4.48176e-12
-3.27069e-13
4.73212e-12
-3.43522e-13
4.99543e-12
-3.61378e-13
5.27267e-12
-3.80692e-13
5.56497e-12
-4.01557e-13
5.8735e-12
-4.2406e-13
6.19961e-12
-4.48259e-13
6.54488e-12
-4.74323e-13
6.91106e-12
-5.02595e-13
7.29996e-12
-5.33474e-13
7.71333e-12
-5.67233e-13
8.15307e-12
-6.03975e-13
8.62156e-12
-6.43807e-13
9.12151e-12
-6.86987e-13
9.65574e-12
-7.33846e-13
1.02274e-11
-7.848e-13
1.08401e-11
-8.40495e-13
1.14978e-11
-9.01686e-13
1.22043e-11
-9.6899e-13
1.2964e-11
-1.04278e-12
1.37819e-11
-1.12339e-12
1.46641e-11
-1.21142e-12
1.56165e-11
-1.30774e-12
1.6646e-11
-1.41325e-12
1.776e-11
-1.52889e-12
1.89665e-11
-1.65566e-12
2.02745e-11
-1.79475e-12
2.16934e-11
-1.94728e-12
2.32335e-11
-2.11421e-12
2.4906e-11
-2.29657e-12
2.67233e-11
-2.49555e-12
2.86979e-11
-2.71234e-12
3.08436e-11
-2.948e-12
3.31744e-11
-3.20338e-12
3.57048e-11
-3.47905e-12
3.84503e-11
-3.77548e-12
4.14259e-11
-4.09293e-12
4.46461e-11
-4.43107e-12
4.81249e-11
-4.78886e-12
5.1875e-11
-5.16455e-12
5.59066e-11
-5.55529e-12
6.02276e-11
-5.95717e-12
6.48415e-11
-6.36497e-12
6.97465e-11
-6.77159e-12
7.49346e-11
-7.16804e-12
8.03894e-11
-7.54323e-12
8.60847e-11
-7.8835e-12
9.19826e-11
-8.17267e-12
9.80312e-11
-8.3917e-12
1.04163e-10
-8.5187e-12
1.10292e-10
-8.52904e-12
1.16315e-10
-8.39542e-12
1.22103e-10
-8.0884e-12
1.27511e-10
-7.57698e-12
1.32367e-10
-6.82978e-12
1.36479e-10
-5.81643e-12
1.39638e-10
-4.50923e-12
1.41619e-10
-2.88589e-12
1.42185e-10
-9.32123e-13
1.41102e-10
1.35463e-12
1.38148e-10
3.96026e-12
1.33128e-10
6.84892e-12
1.25894e-10
9.95615e-12
1.16374e-10
1.31814e-11
1.04602e-10
1.63787e-11
9.07527e-11
1.9346e-11
7.51946e-11
2.18134e-11
5.85332e-11
2.34313e-11
4.16623e-11
2.37669e-11
2.57992e-11
2.23178e-11
1.24671e-11
1.85874e-11
3.37102e-12
1.22729e-11
3.95331e-12
-5.40295e-12
9.15846e-12
-1.83446e-11
2.43638e-11
-3.63403e-11
3.51707e-11
-5.7268e-11
4.14498e-11
-7.93265e-11
4.38256e-11
-1.01068e-10
4.31252e-11
-1.21405e-10
4.01736e-11
-1.39577e-10
3.56982e-11
-1.55104e-10
3.03027e-11
-1.67741e-10
2.44642e-11
-1.77422e-10
1.85497e-11
-1.84222e-10
1.28277e-11
-1.88313e-10
7.4883e-12
-1.89936e-10
2.65477e-12
-1.89372e-10
-1.60154e-12
-1.8692e-10
-5.24997e-12
-1.82884e-10
-8.2915e-12
-1.77559e-10
-1.07494e-11
-1.7122e-10
-1.26625e-11
-1.64122e-10
-1.40804e-11
-1.5649e-10
-1.50586e-11
-1.48523e-10
-1.5654e-11
-1.40391e-10
-1.59242e-11
-1.32234e-10
-1.59234e-11
-1.2417e-10
-1.5702e-11
-1.16292e-10
-1.53063e-11
-1.0867e-10
-1.47773e-11
-1.01358e-10
-1.41506e-11
-9.43939e-11
-1.34568e-11
-8.78003e-11
-1.27209e-11
-8.15903e-11
-1.19643e-11
-7.57676e-11
-1.12041e-11
-7.03287e-11
-1.04536e-11
-6.52648e-11
-9.72297e-12
-6.05624e-11
-9.01972e-12
-5.62066e-11
-8.34979e-12
-5.21773e-11
-7.71528e-12
-4.84578e-11
-7.1197e-12
-4.50259e-11
-6.56284e-12
-4.18635e-11
-6.04522e-12
-3.895e-11
-5.56542e-12
-3.62674e-11
-5.12301e-12
-3.37973e-11
-4.71515e-12
-3.15221e-11
-4.34044e-12
-2.94264e-11
-3.9976e-12
-2.74947e-11
-3.68354e-12
-2.57129e-11
-3.39614e-12
-2.40686e-11
-3.1339e-12
-2.25496e-11
-2.89457e-12
-2.11448e-11
-2.67597e-12
-1.98443e-11
-2.47667e-12
-1.86395e-11
-2.29506e-12
-1.75216e-11
-2.12927e-12
-1.64832e-11
-1.97775e-12
-1.55173e-11
-1.83935e-12
-1.46176e-11
-1.71295e-12
-1.37785e-11
-1.59737e-12
-1.29948e-11
-1.49162e-12
-1.2262e-11
-1.39486e-12
-1.15758e-11
-1.30626e-12
-1.09324e-11
-1.225e-12
-1.03283e-11
-1.1503e-12
-9.76026e-12
-1.08155e-12
-9.22526e-12
-1.01826e-12
-8.72064e-12
-9.60103e-13
-8.24417e-12
-9.06681e-13
-7.79381e-12
-8.57479e-13
-7.36753e-12
-8.11986e-13
-6.96331e-12
-7.69867e-13
-6.57939e-12
-7.30939e-13
-6.21422e-12
-6.95035e-13
-5.86648e-12
-6.61894e-13
-5.53496e-12
-6.31233e-13
-5.21838e-12
-6.02763e-13
-4.91557e-12
-5.76409e-13
-4.62551e-12
-5.52074e-13
-4.3473e-12
-5.29637e-13
-4.08002e-12
-5.08875e-13
-3.82284e-12
-4.89628e-13
-3.57496e-12
-4.71853e-13
-3.33573e-12
-4.55483e-13
-3.10449e-12
-4.40391e-13
-2.88055e-12
-4.26456e-13
-2.66327e-12
-4.13645e-13
-2.45206e-12
-4.02009e-13
-2.24652e-12
-3.91499e-13
-2.04621e-12
-3.81908e-13
-1.85051e-12
-3.73083e-13
-1.65888e-12
-3.65056e-13
-1.47095e-12
-3.5791e-13
-1.28632e-12
-3.51636e-13
-1.10459e-12
-3.4617e-13
-9.25359e-13
-3.41478e-13
-7.48236e-13
-3.37537e-13
-5.72872e-13
-3.34293e-13
-3.98906e-13
-3.31684e-13
-2.25934e-13
-3.29697e-13
-5.35809e-14
-3.28384e-13
1.18435e-13
-3.27787e-13
2.90411e-13
-3.27871e-13
4.62758e-13
-3.28593e-13
6.35884e-13
-3.29987e-13
8.10085e-13
-3.32094e-13
9.85645e-13
-3.3487e-13
1.16296e-12
-3.38252e-13
1.34248e-12
-3.42269e-13
1.52461e-12
-3.47052e-13
1.70963e-12
-3.52691e-13
1.89783e-12
-3.59122e-13
2.08968e-12
-3.66234e-13
2.28577e-12
-3.74035e-13
2.48662e-12
-3.82654e-13
2.69263e-12
-3.92236e-13
2.90419e-12
-4.02841e-13
3.12178e-12
-4.14441e-13
3.34599e-12
-4.27023e-13
3.57744e-12
-4.40665e-13
3.81674e-12
-4.55499e-13
4.06452e-12
-4.71635e-13
4.3215e-12
-4.89126e-13
4.58839e-12
-5.07985e-13
4.86599e-12
-5.28279e-13
5.15516e-12
-5.50172e-13
5.45685e-12
-5.7388e-13
5.77198e-12
-5.99568e-13
6.10152e-12
-6.27316e-13
6.44663e-12
-6.5719e-13
6.80862e-12
-6.89319e-13
7.18892e-12
-7.23928e-13
7.58895e-12
-7.61302e-13
8.01024e-12
-8.01709e-13
8.4545e-12
-8.45451e-13
8.92358e-12
-8.92866e-13
9.41942e-12
-9.44223e-13
9.94422e-12
-9.99723e-13
1.05005e-11
-1.05964e-12
1.10912e-11
-1.12447e-12
1.17192e-11
-1.19495e-12
1.23876e-11
-1.27175e-12
1.30998e-11
-1.35544e-12
1.38598e-11
-1.44663e-12
1.46719e-11
-1.54604e-12
1.55405e-11
-1.65434e-12
1.64711e-11
-1.77226e-12
1.74695e-11
-1.90088e-12
1.85422e-11
-2.04158e-12
1.96959e-11
-2.19581e-12
2.09382e-11
-2.36482e-12
2.22775e-11
-2.54997e-12
2.3723e-11
-2.75285e-12
2.5285e-11
-2.97516e-12
2.69744e-11
-3.21866e-12
2.88034e-11
-3.48525e-12
3.07852e-11
-3.77709e-12
3.29342e-11
-4.09654e-12
3.52658e-11
-4.4459e-12
3.77964e-11
-4.82739e-12
4.05439e-11
-5.24322e-12
4.35274e-11
-5.6956e-12
4.67667e-11
-6.18673e-12
5.02826e-11
-6.71848e-12
5.40962e-11
-7.2921e-12
5.82292e-11
-7.90819e-12
6.27033e-11
-8.56678e-12
6.75393e-11
-9.26683e-12
7.27564e-11
-1.00059e-11
7.83719e-11
-1.078e-11
8.43993e-11
-1.1583e-11
9.08476e-11
-1.24059e-11
9.77198e-11
-1.32374e-11
1.0501e-10
-1.40624e-11
1.12703e-10
-1.48618e-11
1.20772e-10
-1.5612e-11
1.29172e-10
-1.62845e-11
1.37845e-10
-1.68454e-11
1.46708e-10
-1.72554e-11
1.55658e-10
-1.74691e-11
1.64565e-10
-1.74359e-11
1.73271e-10
-1.71006e-11
1.81586e-10
-1.64034e-11
1.89292e-10
-1.52828e-11
1.96139e-10
-1.36765e-11
2.01848e-10
-1.15255e-11
2.06116e-10
-8.7774e-12
2.08622e-10
-5.39165e-12
2.09035e-10
-1.34578e-12
2.07033e-10
3.35742e-12
2.02312e-10
8.68072e-12
1.94619e-10
1.45418e-11
1.83775e-10
2.0801e-11
1.69709e-10
2.72469e-11
1.52507e-10
3.35808e-11
1.32453e-10
3.94e-11
1.10084e-10
4.41816e-11
8.62457e-11
4.72697e-11
6.21351e-11
4.78779e-11
3.93329e-11
4.51215e-11
1.97942e-11
3.81272e-11
5.8023e-12
2.62637e-11
9.75577e-12
-6.91729e-12
1.6077e-11
-2.30691e-11
4.05168e-11
-4.51477e-11
5.72494e-11
-7.05797e-11
6.6882e-11
-9.72865e-11
7.05321e-11
-1.2362e-10
6.94591e-11
-1.48331e-10
6.48848e-11
-1.70527e-10
5.78947e-11
-1.8963e-10
4.94045e-11
-2.05322e-10
4.01556e-11
-2.17498e-10
3.07254e-11
-2.26218e-10
2.15478e-11
-2.31663e-10
1.29342e-11
-2.34101e-10
5.09286e-12
-2.33851e-10
-1.8504e-12
-2.31265e-10
-7.83652e-12
-2.26699e-10
-1.28574e-11
-2.20505e-10
-1.69427e-11
-2.13018e-10
-2.01498e-11
-2.04545e-10
-2.25533e-11
-1.95364e-10
-2.42388e-11
-1.85722e-10
-2.5297e-11
-1.75828e-10
-2.58181e-11
-1.65861e-10
-2.58892e-11
-1.55971e-10
-2.55927e-11
-1.46275e-10
-2.50027e-11
-1.36865e-10
-2.41863e-11
-1.27814e-10
-2.32022e-11
-1.1917e-10
-2.21005e-11
-1.10967e-10
-2.09237e-11
-1.03225e-10
-1.97066e-11
-9.59512e-11
-1.84785e-11
-8.91439e-11
-1.72607e-11
-8.27949e-11
-1.60721e-11
-7.68902e-11
-1.49249e-11
-7.14109e-11
-1.38286e-11
-6.63369e-11
-1.27894e-11
-6.16456e-11
-1.18114e-11
-5.73127e-11
-1.08955e-11
-5.33149e-11
-1.00428e-11
-4.96287e-11
-9.25182e-12
-4.62303e-11
-8.52088e-12
-4.30987e-11
-7.84716e-12
-4.02125e-11
-7.22734e-12
-3.7551e-11
-6.6588e-12
-3.50961e-11
-6.13815e-12
-3.28308e-11
-5.66178e-12
-3.07388e-11
-5.22629e-12
-2.88049e-11
-4.82841e-12
-2.70157e-11
-4.4651e-12
-2.53588e-11
-4.13358e-12
-2.38228e-11
-3.83104e-12
-2.2397e-11
-3.55483e-12
-2.10721e-11
-3.30262e-12
-1.98395e-11
-3.07221e-12
-1.8691e-11
-2.86155e-12
-1.76196e-11
-2.66883e-12
-1.66189e-11
-2.49243e-12
-1.56828e-11
-2.33088e-12
-1.48061e-11
-2.18282e-12
-1.39838e-11
-2.04704e-12
-1.32116e-11
-1.92243e-12
-1.24854e-11
-1.80787e-12
-1.18016e-11
-1.70237e-12
-1.11566e-11
-1.60515e-12
-1.05474e-11
-1.51565e-12
-9.97139e-12
-1.43329e-12
-9.42605e-12
-1.35735e-12
-8.90902e-12
-1.28716e-12
-8.41801e-12
-1.22219e-12
-7.95098e-12
-1.16209e-12
-7.50614e-12
-1.10657e-12
-7.08192e-12
-1.05529e-12
-6.67688e-12
-1.00788e-12
-6.28953e-12
-9.63963e-13
-5.91848e-12
-9.23295e-13
-5.5625e-12
-8.85681e-13
-5.22046e-12
-8.5086e-13
-4.89138e-12
-8.18692e-13
-4.57423e-12
-7.88981e-13
-4.26807e-12
-7.61629e-13
-3.9721e-12
-7.36482e-13
-3.68551e-12
-7.13305e-13
-3.40758e-12
-6.91941e-13
-3.13745e-12
-6.72314e-13
-2.87437e-12
-6.54443e-13
-2.61781e-12
-6.38273e-13
-2.36722e-12
-6.23646e-13
-2.12198e-12
-6.10455e-13
-1.88153e-12
-5.98654e-13
-1.64529e-12
-5.88175e-13
-1.41275e-12
-5.7896e-13
-1.1834e-12
-5.70976e-13
-9.56698e-13
-5.6421e-13
-7.32183e-13
-5.58658e-13
-5.09428e-13
-5.54296e-13
-2.88002e-13
-5.51076e-13
-6.74407e-14
-5.48979e-13
1.52705e-13
-5.48015e-13
3.72849e-13
-5.48156e-13
5.93439e-13
-5.49343e-13
8.14984e-13
-5.51597e-13
1.03796e-12
-5.55e-13
1.26277e-12
-5.59595e-13
1.48982e-12
-5.65346e-13
1.71957e-12
-5.72202e-13
1.95257e-12
-5.80203e-13
2.18936e-12
-5.89479e-13
2.43039e-12
-6.00118e-13
2.67614e-12
-6.12082e-13
2.92722e-12
-6.25323e-13
3.18424e-12
-6.39892e-13
3.44783e-12
-6.55938e-13
3.7186e-12
-6.73621e-13
3.99715e-12
-6.93017e-13
4.28417e-12
-7.14149e-13
4.58039e-12
-7.37075e-13
4.88661e-12
-7.61904e-13
5.20374e-12
-7.88796e-13
5.53269e-12
-8.1794e-13
5.87435e-12
-8.49509e-13
6.22965e-12
-8.83628e-13
6.59966e-12
-9.20406e-13
6.98562e-12
-9.60029e-13
7.38883e-12
-1.00279e-12
7.8106e-12
-1.04899e-12
8.25235e-12
-1.09888e-12
8.71564e-12
-1.15269e-12
9.20226e-12
-1.2107e-12
9.71404e-12
-1.27329e-12
1.02529e-11
-1.34085e-12
1.08211e-11
-1.4138e-12
1.14211e-11
-1.49271e-12
1.20555e-11
-1.57823e-12
1.2727e-11
-1.67097e-12
1.34387e-11
-1.77143e-12
1.41941e-11
-1.88023e-12
1.49968e-11
-1.99821e-12
1.58511e-11
-2.1264e-12
1.67614e-11
-2.26581e-12
1.77326e-11
-2.41758e-12
1.87704e-11
-2.58311e-12
1.98804e-11
-2.76384e-12
2.10693e-11
-2.96109e-12
2.23442e-11
-3.17634e-12
2.37132e-11
-3.41141e-12
2.51853e-11
-3.66846e-12
2.677e-11
-3.9498e-12
2.84777e-11
-4.25783e-12
3.03202e-11
-4.5952e-12
3.23102e-11
-4.96475e-12
3.44617e-11
-5.36955e-12
3.67895e-11
-5.81275e-12
3.93102e-11
-6.29766e-12
4.20417e-11
-6.82788e-12
4.50031e-11
-7.4072e-12
4.82151e-11
-8.03933e-12
5.16994e-11
-8.72782e-12
5.54794e-11
-9.47607e-12
5.95795e-11
-1.02873e-11
6.4025e-11
-1.11642e-11
6.88418e-11
-1.21089e-11
7.40556e-11
-1.31222e-11
7.96924e-11
-1.42036e-11
8.57765e-11
-1.53509e-11
9.23304e-11
-1.65597e-11
9.93734e-11
-1.78227e-11
1.0692e-10
-1.91292e-11
1.14978e-10
-2.04643e-11
1.2355e-10
-2.18082e-11
1.32623e-10
-2.31354e-11
1.42175e-10
-2.44139e-11
1.52167e-10
-2.56044e-11
1.62542e-10
-2.66597e-11
1.73221e-10
-2.75237e-11
1.84097e-10
-2.81319e-11
1.95039e-10
-2.84104e-11
2.0588e-10
-2.82771e-11
2.16422e-10
-2.76425e-11
2.26429e-10
-2.64112e-11
2.35632e-10
-2.44852e-11
2.43723e-10
-2.1767e-11
2.50362e-10
-1.81651e-11
2.55185e-10
-1.36004e-11
2.57807e-10
-8.01411e-12
2.5784e-10
-1.3783e-12
2.54905e-10
6.29265e-12
2.48658e-10
1.49277e-11
2.38817e-10
2.43829e-11
2.25195e-10
3.44234e-11
2.07739e-10
4.47023e-11
1.86581e-10
5.47393e-11
1.62083e-10
6.38988e-11
1.34892e-10
7.13716e-11
1.05999e-10
7.61628e-11
7.6776e-11
7.70999e-11
4.90232e-11
7.28744e-11
2.49979e-11
6.21537e-11
7.47374e-12
4.37878e-11
1.72295e-11
-7.78606e-12
2.38628e-11
-2.59198e-11
5.86504e-11
-5.05944e-11
8.19237e-11
-7.89178e-11
9.52062e-11
-1.08621e-10
1.00234e-10
-1.37932e-10
9.87697e-11
-1.6551e-10
9.24621e-11
-1.90388e-10
8.27739e-11
-2.11929e-10
7.09456e-11
-2.29768e-10
5.79946e-11
-2.43767e-10
4.47242e-11
-2.53967e-10
3.17478e-11
-2.60543e-10
1.95109e-11
-2.63769e-10
8.31896e-12
-2.63981e-10
-1.63853e-12
-2.61552e-10
-1.02664e-11
-2.56867e-10
-1.75418e-11
-2.50312e-10
-2.34983e-11
-2.42253e-10
-2.82089e-11
-2.33033e-10
-3.17738e-11
-2.22962e-10
-3.43096e-11
-2.12317e-10
-3.59418e-11
-2.01338e-10
-3.67968e-11
-1.90229e-10
-3.69977e-11
-1.79162e-10
-3.66602e-11
-1.68274e-10
-3.58909e-11
-1.57675e-10
-3.47853e-11
-1.47449e-10
-3.34282e-11
-1.37658e-10
-3.18918e-11
-1.28343e-10
-3.02382e-11
-1.19531e-10
-2.85189e-11
-1.11234e-10
-2.6775e-11
-1.03454e-10
-2.50412e-11
-9.61832e-11
-2.33425e-11
-8.94092e-11
-2.16988e-11
-8.31129e-11
-2.01246e-11
-7.72732e-11
-1.86295e-11
-7.1865e-11
-1.72192e-11
-6.6864e-11
-1.58973e-11
-6.22429e-11
-1.46635e-11
-5.7977e-11
-1.35181e-11
-5.40395e-11
-1.24577e-11
-5.04064e-11
-1.14795e-11
-4.70552e-11
-1.05795e-11
-4.3962e-11
-9.75224e-12
-4.11059e-11
-8.99355e-12
-3.84682e-11
-8.29933e-12
-3.60302e-11
-7.66427e-12
-3.37749e-11
-7.08353e-12
-3.16871e-11
-6.55299e-12
-2.97524e-11
-6.06847e-12
-2.79575e-11
-5.62584e-12
-2.62906e-11
-5.22152e-12
-2.47409e-11
-4.85222e-12
-2.32983e-11
-4.5147e-12
-2.19537e-11
-4.20601e-12
-2.06988e-11
-3.92356e-12
-1.95261e-11
-3.665e-12
-1.8429e-11
-3.42806e-12
-1.74011e-11
-3.21073e-12
-1.64367e-11
-3.01126e-12
-1.55307e-11
-2.82811e-12
-1.46784e-11
-2.65984e-12
-1.38757e-11
-2.50502e-12
-1.31185e-11
-2.36238e-12
-1.24034e-11
-2.23087e-12
-1.17269e-11
-2.10963e-12
-1.10862e-11
-1.99785e-12
-1.04786e-11
-1.89466e-12
-9.90158e-12
-1.79928e-12
-9.35277e-12
-1.71099e-12
-8.83002e-12
-1.62931e-12
-8.33137e-12
-1.5538e-12
-7.85512e-12
-1.484e-12
-7.39963e-12
-1.41945e-12
-6.9633e-12
-1.35968e-12
-6.54464e-12
-1.30433e-12
-6.14236e-12
-1.25311e-12
-5.75529e-12
-1.20578e-12
-5.38228e-12
-1.16206e-12
-5.02216e-12
-1.12173e-12
-4.67388e-12
-1.08462e-12
-4.33658e-12
-1.05053e-12
-4.00947e-12
-1.01924e-12
-3.69166e-12
-9.90479e-13
-3.38218e-12
-9.64118e-13
-3.08027e-12
-9.40145e-13
-2.7853e-12
-9.18502e-13
-2.49663e-12
-8.99055e-13
-2.21356e-12
-8.81681e-13
-1.93544e-12
-8.6629e-13
-1.66168e-12
-8.52789e-13
-1.39169e-12
-8.41079e-13
-1.12485e-12
-8.31107e-13
-8.60579e-13
-8.22868e-13
-5.98343e-13
-8.16367e-13
-3.37661e-13
-8.11581e-13
-7.80155e-14
-8.08473e-13
1.81169e-13
-8.0702e-13
4.40417e-13
-8.0721e-13
7.00188e-13
-8.09007e-13
9.61002e-13
-8.12379e-13
1.22345e-12
-8.17364e-13
1.48812e-12
-8.24041e-13
1.7555e-12
-8.32479e-13
2.02606e-12
-8.42677e-13
2.30034e-12
-8.54597e-13
2.57901e-12
-8.68272e-13
2.86274e-12
-8.83815e-13
3.15214e-12
-9.01322e-13
3.44781e-12
-9.20851e-13
3.75038e-12
-9.42461e-13
4.06058e-12
-9.66233e-13
4.37922e-12
-9.92303e-13
4.70708e-12
-1.02082e-12
5.04492e-12
-1.05194e-12
5.39356e-12
-1.08578e-12
5.75393e-12
-1.12245e-12
6.12705e-12
-1.1621e-12
6.51402e-12
-1.20497e-12
6.91597e-12
-1.25135e-12
7.33399e-12
-1.30155e-12
7.76932e-12
-1.35576e-12
8.22329e-12
-1.41418e-12
8.69743e-12
-1.47714e-12
9.19337e-12
-1.54502e-12
9.71282e-12
-1.61828e-12
1.02576e-11
-1.69733e-12
1.08297e-11
-1.78262e-12
1.14314e-11
-1.87473e-12
1.20648e-11
-1.97423e-12
1.27325e-11
-2.0817e-12
1.34373e-11
-2.19779e-12
1.41824e-11
-2.32334e-12
1.49711e-11
-2.45932e-12
1.5807e-11
-2.60678e-12
1.6694e-11
-2.76675e-12
1.76363e-11
-2.94037e-12
1.86388e-11
-3.12897e-12
1.97067e-11
-3.33399e-12
2.08456e-11
-3.55696e-12
2.20621e-11
-3.79974e-12
2.3363e-11
-4.06447e-12
2.4756e-11
-4.35347e-12
2.62493e-11
-4.66911e-12
2.78519e-11
-5.0139e-12
2.95743e-11
-5.39076e-12
3.14274e-11
-5.80297e-12
3.34233e-11
-6.25401e-12
3.55753e-11
-6.74758e-12
3.78982e-11
-7.28775e-12
4.04078e-11
-7.87897e-12
4.31212e-11
-8.52593e-12
4.6057e-11
-9.23337e-12
4.92355e-11
-1.00063e-11
5.26784e-11
-1.08499e-11
5.64091e-11
-1.17696e-11
6.04521e-11
-1.27703e-11
6.48332e-11
-1.38569e-11
6.95796e-11
-1.50336e-11
7.47195e-11
-1.6304e-11
8.02813e-11
-1.76705e-11
8.62932e-11
-1.9134e-11
9.2783e-11
-2.06933e-11
9.97769e-11
-2.23447e-11
1.07298e-10
-2.40809e-11
1.15366e-10
-2.58907e-11
1.23995e-10
-2.77579e-11
1.3319e-10
-2.96599e-11
1.4295e-10
-3.15674e-11
1.53257e-10
-3.34428e-11
1.64082e-10
-3.5239e-11
1.75376e-10
-3.68986e-11
1.8707e-10
-3.83529e-11
1.99067e-10
-3.95209e-11
2.11245e-10
-4.03095e-11
2.23447e-10
-4.06131e-11
2.35485e-10
-4.03146e-11
2.4713e-10
-3.92871e-11
2.58115e-10
-3.73964e-11
2.68135e-10
-3.45054e-11
2.76848e-10
-3.04793e-11
2.83876e-10
-2.51934e-11
2.88818e-10
-1.85419e-11
2.91254e-10
-1.04501e-11
2.90764e-10
-8.88201e-13
2.86944e-10
1.01117e-11
2.79436e-10
2.24366e-11
2.67949e-10
3.58703e-11
2.52303e-10
5.00695e-11
2.32467e-10
6.45375e-11
2.08609e-10
7.85976e-11
1.81142e-10
9.13664e-11
1.5078e-10
1.01734e-10
1.18592e-10
1.08351e-10
8.60505e-11
1.09641e-10
5.50907e-11
1.03834e-10
2.81805e-11
8.90643e-11
8.44782e-12
6.3521e-11
2.56773e-11
-8.13838e-12
3.20013e-11
-2.71944e-11
7.77055e-11
-5.31544e-11
1.07884e-10
-8.29611e-11
1.25012e-10
-1.14238e-10
1.31511e-10
-1.45152e-10
1.29683e-10
-1.74318e-10
1.21627e-10
-2.00736e-10
1.09192e-10
-2.23736e-10
9.3946e-11
-2.42926e-10
7.71847e-11
-2.58144e-10
5.99418e-11
-2.69409e-10
4.30126e-11
-2.76883e-10
2.69852e-11
-2.80831e-10
1.2267e-11
-2.81586e-10
-8.83161e-13
-2.79525e-10
-1.23276e-11
-2.75042e-10
-2.20253e-11
-2.68531e-10
-3.00092e-11
-2.60375e-10
-3.6365e-11
-2.50931e-10
-4.12177e-11
-2.40526e-10
-4.47142e-11
-2.29455e-10
-4.70133e-11
-2.17974e-10
-4.82784e-11
-2.06302e-10
-4.8669e-11
-1.94626e-10
-4.83362e-11
-1.83096e-10
-4.74197e-11
-1.71836e-10
-4.60459e-11
-1.60939e-10
-4.43253e-11
-1.50475e-10
-4.2356e-11
-1.40494e-10
-4.02195e-11
-1.31027e-10
-3.79851e-11
-1.22093e-10
-3.57093e-11
-1.13697e-10
-3.34376e-11
-1.05834e-10
-3.12052e-11
-9.84933e-11
-2.90395e-11
-9.16575e-11
-2.69602e-11
-8.53055e-11
-2.49812e-11
-7.94134e-11
-2.31112e-11
-7.39549e-11
-2.13553e-11
-6.89045e-11
-1.97145e-11
-6.42345e-11
-1.81883e-11
-5.99184e-11
-1.67738e-11
-5.59309e-11
-1.54669e-11
-5.2247e-11
-1.4263e-11
-4.88432e-11
-1.3156e-11
-4.56975e-11
-1.21397e-11
-4.27886e-11
-1.12083e-11
-4.0097e-11
-1.03554e-11
-3.7605e-11
-9.57522e-12
-3.52959e-11
-8.86201e-12
-3.31543e-11
-8.21003e-12
-3.1166e-11
-7.61405e-12
-2.93181e-11
-7.06935e-12
-2.75989e-11
-6.57145e-12
-2.59974e-11
-6.11609e-12
-2.45038e-11
-5.69943e-12
-2.31091e-11
-5.31803e-12
-2.18051e-11
-4.96872e-12
-2.05844e-11
-4.64856e-12
-1.94403e-11
-4.35483e-12
-1.83665e-11
-4.08511e-12
-1.73572e-11
-3.83726e-12
-1.64074e-11
-3.60937e-12
-1.55123e-11
-3.39973e-12
-1.46679e-11
-3.20669e-12
-1.38701e-11
-3.02872e-12
-1.31154e-11
-2.86449e-12
-1.24003e-11
-2.7129e-12
-1.17218e-11
-2.57295e-12
-1.10773e-11
-2.44363e-12
-1.04643e-11
-2.32406e-12
-9.88028e-12
-2.21341e-12
-9.32312e-12
-2.111e-12
-8.79085e-12
-2.01629e-12
-8.2816e-12
-1.92867e-12
-7.79369e-12
-1.84756e-12
-7.32548e-12
-1.77247e-12
-6.87556e-12
-1.70301e-12
-6.44256e-12
-1.63883e-12
-6.02524e-12
-1.57956e-12
-5.62235e-12
-1.52483e-12
-5.23266e-12
-1.47435e-12
-4.85515e-12
-1.42795e-12
-4.48888e-12
-1.38542e-12
-4.13298e-12
-1.34645e-12
-3.78649e-12
-1.31079e-12
-3.44853e-12
-1.27829e-12
-3.11829e-12
-1.24888e-12
-2.79503e-12
-1.22242e-12
-2.478e-12
-1.19874e-12
-2.16648e-12
-1.17775e-12
-1.85978e-12
-1.15937e-12
-1.55728e-12
-1.14349e-12
-1.25835e-12
-1.13e-12
-9.62318e-13
-1.11885e-12
-6.68565e-13
-1.11002e-12
-3.76534e-13
-1.10351e-12
-8.56569e-14
-1.09927e-12
2.04709e-13
-1.09723e-12
4.95185e-13
-1.09741e-12
7.86293e-13
-1.09984e-12
1.07855e-12
-1.10448e-12
1.37258e-12
-1.11131e-12
1.66903e-12
-1.12037e-12
1.96855e-12
-1.13176e-12
2.27171e-12
-1.14559e-12
2.57905e-12
-1.16185e-12
2.89124e-12
-1.18053e-12
3.20905e-12
-1.20168e-12
3.53321e-12
-1.22541e-12
3.86438e-12
-1.2519e-12
4.20328e-12
-1.28131e-12
4.55067e-12
-1.31371e-12
4.90745e-12
-1.34921e-12
5.27451e-12
-1.38796e-12
5.65273e-12
-1.43018e-12
6.04306e-12
-1.4761e-12
6.44649e-12
-1.52594e-12
6.86413e-12
-1.5799e-12
7.29712e-12
-1.6382e-12
7.74676e-12
-1.70118e-12
8.21439e-12
-1.76922e-12
8.70139e-12
-1.84272e-12
9.20921e-12
-1.92202e-12
9.73944e-12
-2.00753e-12
1.02939e-11
-2.0997e-12
1.08745e-11
-2.19907e-12
1.14834e-11
-2.30624e-12
1.21227e-11
-2.42185e-12
1.27948e-11
-2.54663e-12
1.35023e-11
-2.68144e-12
1.42481e-11
-2.82719e-12
1.5035e-11
-2.98475e-12
1.58665e-11
-3.15508e-12
1.67464e-11
-3.33932e-12
1.76788e-11
-3.53892e-12
1.86678e-11
-3.75542e-12
1.97181e-11
-3.99038e-12
2.08353e-11
-4.2456e-12
2.20248e-11
-4.52312e-12
2.32929e-11
-4.82506e-12
2.46465e-11
-5.15367e-12
2.60933e-11
-5.51161e-12
2.76418e-11
-5.90195e-12
2.93008e-11
-6.32803e-12
3.10804e-11
-6.79334e-12
3.29916e-11
-7.30175e-12
3.50464e-11
-7.85756e-12
3.7258e-11
-8.46542e-12
3.96407e-11
-9.13026e-12
4.22103e-11
-9.85736e-12
4.49839e-11
-1.06525e-11
4.798e-11
-1.15218e-11
5.12185e-11
-1.24717e-11
5.47209e-11
-1.35087e-11
5.85104e-11
-1.46395e-11
6.26116e-11
-1.58708e-11
6.70505e-11