/*--------------------------------*- C++ -*----------------------------------*\
| =========                 |                                                 |
| \\      /  F ield         | OpenFOAM: The Open Source CFD Toolbox           |
|  \\    /   O peration     | Version:  2412                                  |
|   \\  /    A nd           | Website:  www.openfoam.com                      |
|    \\/     M anipulation  |                                                 |
\*---------------------------------------------------------------------------*/
FoamFile
{
    version     2.0;
    format      ascii;
    arch        "LSB;label=32;scalar=64";
    class       volVectorField;
    location    "500";
    object      U;
}
// * * * * * * * * * * * * * * * * * * * * * * * * * * * * * * * * * * * * * //

dimensions      [0 1 -1 0 0 0 0];

internalField   nonuniform List<vector> 
40000
(
(3.57608e-08 -4.14005e-08 0)
(-3.06652e-07 5.38577e-08 0)
(-1.12866e-06 1.3115e-07 0)
(-2.24589e-06 1.70459e-07 0)
(-3.50071e-06 1.8095e-07 0)
(-4.77111e-06 1.72751e-07 0)
(-5.97131e-06 1.53831e-07 0)
(-7.04603e-06 1.29506e-07 0)
(-7.96302e-06 1.03224e-07 0)
(-8.70733e-06 7.71293e-08 0)
(-9.27629e-06 5.2589e-08 0)
(-9.67595e-06 3.03013e-08 0)
(-9.91815e-06 1.07058e-08 0)
(-1.00183e-05 -6.10352e-09 0)
(-9.99399e-06 -2.01329e-08 0)
(-9.86338e-06 -3.15014e-08 0)
(-9.6445e-06 -4.03921e-08 0)
(-9.35449e-06 -4.70918e-08 0)
(-9.00936e-06 -5.18764e-08 0)
(-8.62352e-06 -5.49723e-08 0)
(-8.20967e-06 -5.66379e-08 0)
(-7.77882e-06 -5.71432e-08 0)
(-7.3403e-06 -5.66832e-08 0)
(-6.90176e-06 -5.55146e-08 0)
(-6.46953e-06 -5.37865e-08 0)
(-6.0485e-06 -5.16044e-08 0)
(-5.64237e-06 -4.91341e-08 0)
(-5.25387e-06 -4.65033e-08 0)
(-4.88483e-06 -4.3776e-08 0)
(-4.53637e-06 -4.1044e-08 0)
(-4.20905e-06 -3.83483e-08 0)
(-3.9029e-06 -3.5708e-08 0)
(-3.61762e-06 -3.31603e-08 0)
(-3.35262e-06 -3.0742e-08 0)
(-3.10707e-06 -2.84301e-08 0)
(-2.88003e-06 -2.62803e-08 0)
(-2.6705e-06 -2.43017e-08 0)
(-2.47736e-06 -2.24698e-08 0)
(-2.29955e-06 -2.07946e-08 0)
(-2.13596e-06 -1.92125e-08 0)
(-1.98554e-06 -1.78e-08 0)
(-1.84722e-06 -1.64148e-08 0)
(-1.71998e-06 -1.52223e-08 0)
(-1.60303e-06 -1.41397e-08 0)
(-1.4954e-06 -1.31011e-08 0)
(-1.3963e-06 -1.22141e-08 0)
(-1.30509e-06 -1.14056e-08 0)
(-1.22098e-06 -1.06146e-08 0)
(-1.14331e-06 -9.9128e-09 0)
(-1.07159e-06 -9.30091e-09 0)
(-1.00528e-06 -8.72949e-09 0)
(-9.43878e-07 -8.20404e-09 0)
(-8.86965e-07 -7.73942e-09 0)
(-8.34145e-07 -7.31518e-09 0)
(-7.85047e-07 -6.92233e-09 0)
(-7.39357e-07 -6.56525e-09 0)
(-6.96787e-07 -6.23723e-09 0)
(-6.57058e-07 -5.92726e-09 0)
(-6.19919e-07 -5.63948e-09 0)
(-5.85158e-07 -5.38357e-09 0)
(-5.52584e-07 -5.15998e-09 0)
(-5.2202e-07 -4.95945e-09 0)
(-4.93302e-07 -4.77364e-09 0)
(-4.6628e-07 -4.59559e-09 0)
(-4.40816e-07 -4.42338e-09 0)
(-4.16781e-07 -4.25948e-09 0)
(-3.9406e-07 -4.11145e-09 0)
(-3.72553e-07 -3.9844e-09 0)
(-3.52174e-07 -3.87454e-09 0)
(-3.32842e-07 -3.77226e-09 0)
(-3.14477e-07 -3.67294e-09 0)
(-2.96998e-07 -3.5754e-09 0)
(-2.80331e-07 -3.48234e-09 0)
(-2.64413e-07 -3.39914e-09 0)
(-2.49196e-07 -3.32463e-09 0)
(-2.34639e-07 -3.2572e-09 0)
(-2.20692e-07 -3.19096e-09 0)
(-2.07301e-07 -3.13149e-09 0)
(-1.94417e-07 -3.07465e-09 0)
(-1.82004e-07 -3.02417e-09 0)
(-1.70031e-07 -2.97715e-09 0)
(-1.58466e-07 -2.93587e-09 0)
(-1.47277e-07 -2.90165e-09 0)
(-1.36431e-07 -2.86963e-09 0)
(-1.25908e-07 -2.83272e-09 0)
(-1.15678e-07 -2.78923e-09 0)
(-1.05697e-07 -2.75154e-09 0)
(-9.59373e-08 -2.73524e-09 0)
(-8.63899e-08 -2.73703e-09 0)
(-7.70532e-08 -2.73497e-09 0)
(-6.79092e-08 -2.71399e-09 0)
(-5.89173e-08 -2.68021e-09 0)
(-5.00413e-08 -2.64973e-09 0)
(-4.12686e-08 -2.63125e-09 0)
(-3.25917e-08 -2.62252e-09 0)
(-2.3992e-08 -2.61942e-09 0)
(-1.5449e-08 -2.6221e-09 0)
(-6.94904e-09 -2.62975e-09 0)
(1.52093e-09 -2.63673e-09 0)
(9.97838e-09 -2.63847e-09 0)
(1.84435e-08 -2.63601e-09 0)
(2.69359e-08 -2.63201e-09 0)
(3.54753e-08 -2.62907e-09 0)
(4.40823e-08 -2.63121e-09 0)
(5.27737e-08 -2.64045e-09 0)
(6.15616e-08 -2.65457e-09 0)
(7.04589e-08 -2.67162e-09 0)
(7.94819e-08 -2.69105e-09 0)
(8.86532e-08 -2.71276e-09 0)
(9.79998e-08 -2.73683e-09 0)
(1.07543e-07 -2.76152e-09 0)
(1.17303e-07 -2.78497e-09 0)
(1.27302e-07 -2.80924e-09 0)
(1.37565e-07 -2.83656e-09 0)
(1.48112e-07 -2.86573e-09 0)
(1.58968e-07 -2.89572e-09 0)
(1.70162e-07 -2.92804e-09 0)
(1.81727e-07 -2.96762e-09 0)
(1.93693e-07 -3.01679e-09 0)
(2.0609e-07 -3.07175e-09 0)
(2.18953e-07 -3.1283e-09 0)
(2.32327e-07 -3.18782e-09 0)
(2.46249e-07 -3.2536e-09 0)
(2.60751e-07 -3.32449e-09 0)
(2.75875e-07 -3.39593e-09 0)
(2.91679e-07 -3.46885e-09 0)
(3.0823e-07 -3.55129e-09 0)
(3.25586e-07 -3.64811e-09 0)
(3.43798e-07 -3.75548e-09 0)
(3.62927e-07 -3.86516e-09 0)
(3.8305e-07 -3.97451e-09 0)
(4.04253e-07 -4.08964e-09 0)
(4.26626e-07 -4.21538e-09 0)
(4.50261e-07 -4.35415e-09 0)
(4.75269e-07 -4.51324e-09 0)
(5.01762e-07 -4.69801e-09 0)
(5.29858e-07 -4.90155e-09 0)
(5.59687e-07 -5.11023e-09 0)
(5.91404e-07 -5.31848e-09 0)
(6.25182e-07 -5.53594e-09 0)
(6.61207e-07 -5.77641e-09 0)
(6.99677e-07 -6.04582e-09 0)
(7.40815e-07 -6.35149e-09 0)
(7.84869e-07 -6.7058e-09 0)
(8.32092e-07 -7.10542e-09 0)
(8.82767e-07 -7.52796e-09 0)
(9.37226e-07 -7.95775e-09 0)
(9.95848e-07 -8.40614e-09 0)
(1.05905e-06 -8.90388e-09 0)
(1.12726e-06 -9.47268e-09 0)
(1.20095e-06 -1.01147e-08 0)
(1.28065e-06 -1.08228e-08 0)
(1.36693e-06 -1.15912e-08 0)
(1.46044e-06 -1.24311e-08 0)
(1.56189e-06 -1.33637e-08 0)
(1.67203e-06 -1.43981e-08 0)
(1.79166e-06 -1.55294e-08 0)
(1.92167e-06 -1.67528e-08 0)
(2.06303e-06 -1.80775e-08 0)
(2.21675e-06 -1.95241e-08 0)
(2.38392e-06 -2.1109e-08 0)
(2.56564e-06 -2.28422e-08 0)
(2.76309e-06 -2.47294e-08 0)
(2.97747e-06 -2.677e-08 0)
(3.20996e-06 -2.89642e-08 0)
(3.46175e-06 -3.13192e-08 0)
(3.73394e-06 -3.38334e-08 0)
(4.02755e-06 -3.64912e-08 0)
(4.3434e-06 -3.92823e-08 0)
(4.68211e-06 -4.21824e-08 0)
(5.04395e-06 -4.51467e-08 0)
(5.42878e-06 -4.81356e-08 0)
(5.83595e-06 -5.10908e-08 0)
(6.26411e-06 -5.39316e-08 0)
(6.71116e-06 -5.65656e-08 0)
(7.17396e-06 -5.88642e-08 0)
(7.64832e-06 -6.068e-08 0)
(8.12871e-06 -6.18521e-08 0)
(8.60813e-06 -6.21862e-08 0)
(9.07798e-06 -6.14694e-08 0)
(9.52791e-06 -5.94614e-08 0)
(9.94572e-06 -5.58885e-08 0)
(1.03174e-05 -5.04605e-08 0)
(1.0627e-05 -4.28872e-08 0)
(1.08572e-05 -3.2898e-08 0)
(1.09892e-05 -2.02419e-08 0)
(1.10033e-05 -4.71246e-09 0)
(1.088e-05 1.38254e-08 0)
(1.06004e-05 3.53898e-08 0)
(1.01482e-05 5.98056e-08 0)
(9.51111e-06 8.66113e-08 0)
(8.68325e-06 1.14937e-07 0)
(7.66849e-06 1.43316e-07 0)
(6.48427e-06 1.69352e-07 0)
(5.16685e-06 1.89271e-07 0)
(3.77764e-06 1.97293e-07 0)
(2.41101e-06 1.84814e-07 0)
(1.20026e-06 1.40904e-07 0)
(3.15393e-07 5.60664e-08 0)
(-4.38883e-08 -4.78674e-08 0)
(-7.26908e-08 3.0725e-07 0)
(-1.25183e-06 1.18331e-06 0)
(-3.40511e-06 1.87575e-06 0)
(-6.17061e-06 2.27596e-06 0)
(-9.23544e-06 2.42067e-06 0)
(-1.23478e-05 2.37153e-06 0)
(-1.5316e-05 2.18854e-06 0)
(-1.80066e-05 1.92082e-06 0)
(-2.0335e-05 1.60636e-06 0)
(-2.22557e-05 1.27331e-06 0)
(-2.37534e-05 9.42142e-07 0)
(-2.4835e-05 6.27004e-07 0)
(-2.55234e-05 3.37311e-07 0)
(-2.5852e-05 7.87377e-08 0)
(-2.58606e-05 -1.45875e-07 0)
(-2.55925e-05 -3.35778e-07 0)
(-2.50912e-05 -4.91691e-07 0)
(-2.43994e-05 -6.15608e-07 0)
(-2.35571e-05 -7.10126e-07 0)
(-2.26011e-05 -7.78281e-07 0)
(-2.15642e-05 -8.23318e-07 0)
(-2.04752e-05 -8.4849e-07 0)
(-1.93588e-05 -8.5695e-07 0)
(-1.82357e-05 -8.51751e-07 0)
(-1.71228e-05 -8.35606e-07 0)
(-1.60336e-05 -8.10924e-07 0)
(-1.49788e-05 -7.79842e-07 0)
(-1.3966e-05 -7.4419e-07 0)
(-1.30008e-05 -7.05538e-07 0)
(-1.20867e-05 -6.65229e-07 0)
(-1.12257e-05 -6.24267e-07 0)
(-1.04184e-05 -5.8348e-07 0)
(-9.66444e-06 -5.43524e-07 0)
(-8.96268e-06 -5.04867e-07 0)
(-8.31131e-06 -4.67845e-07 0)
(-7.70813e-06 -4.32709e-07 0)
(-7.15063e-06 -3.9967e-07 0)
(-6.63608e-06 -3.68676e-07 0)
(-6.16175e-06 -3.39916e-07 0)
(-5.72493e-06 -3.13182e-07 0)
(-5.32281e-06 -2.88512e-07 0)
(-4.9528e-06 -2.65716e-07 0)
(-4.61239e-06 -2.44838e-07 0)
(-4.29909e-06 -2.25697e-07 0)
(-4.01071e-06 -2.08137e-07 0)
(-3.74514e-06 -1.92151e-07 0)
(-3.5004e-06 -1.77551e-07 0)
(-3.2747e-06 -1.64181e-07 0)
(-3.0664e-06 -1.52016e-07 0)
(-2.87394e-06 -1.40942e-07 0)
(-2.6959e-06 -1.30829e-07 0)
(-2.53107e-06 -1.21612e-07 0)
(-2.37829e-06 -1.13221e-07 0)
(-2.23647e-06 -1.05559e-07 0)
(-2.10465e-06 -9.85646e-08 0)
(-1.98197e-06 -9.21881e-08 0)
(-1.86765e-06 -8.63596e-08 0)
(-1.76097e-06 -8.10133e-08 0)
(-1.66129e-06 -7.61106e-08 0)
(-1.56802e-06 -7.16214e-08 0)
(-1.48061e-06 -6.75134e-08 0)
(-1.39859e-06 -6.37498e-08 0)
(-1.32152e-06 -6.02982e-08 0)
(-1.24899e-06 -5.71238e-08 0)
(-1.18066e-06 -5.41946e-08 0)
(-1.11617e-06 -5.14836e-08 0)
(-1.05525e-06 -4.89796e-08 0)
(-9.97611e-07 -4.66765e-08 0)
(-9.42988e-07 -4.45625e-08 0)
(-8.91151e-07 -4.26154e-08 0)
(-8.41892e-07 -4.08126e-08 0)
(-7.95018e-07 -3.91357e-08 0)
(-7.50347e-07 -3.75749e-08 0)
(-7.07709e-07 -3.61343e-08 0)
(-6.66954e-07 -3.4809e-08 0)
(-6.27952e-07 -3.35913e-08 0)
(-5.90579e-07 -3.24601e-08 0)
(-5.54707e-07 -3.14118e-08 0)
(-5.20204e-07 -3.04346e-08 0)
(-4.86967e-07 -2.95363e-08 0)
(-4.54911e-07 -2.87069e-08 0)
(-4.23953e-07 -2.7947e-08 0)
(-3.94e-07 -2.72553e-08 0)
(-3.64958e-07 -2.66288e-08 0)
(-3.36764e-07 -2.60547e-08 0)
(-3.09363e-07 -2.55075e-08 0)
(-2.82678e-07 -2.49896e-08 0)
(-2.56616e-07 -2.4531e-08 0)
(-2.31094e-07 -2.41476e-08 0)
(-2.06075e-07 -2.38248e-08 0)
(-1.81543e-07 -2.35314e-08 0)
(-1.57449e-07 -2.32512e-08 0)
(-1.33715e-07 -2.29974e-08 0)
(-1.10276e-07 -2.27858e-08 0)
(-8.70842e-08 -2.26132e-08 0)
(-6.4088e-08 -2.24725e-08 0)
(-4.12405e-08 -2.23696e-08 0)
(-1.85007e-08 -2.2312e-08 0)
(4.17016e-09 -2.22964e-08 0)
(2.68122e-08 -2.23128e-08 0)
(4.94741e-08 -2.23552e-08 0)
(7.22082e-08 -2.24217e-08 0)
(9.50609e-08 -2.25139e-08 0)
(1.18078e-07 -2.26389e-08 0)
(1.41311e-07 -2.28038e-08 0)
(1.64808e-07 -2.30095e-08 0)
(1.88611e-07 -2.32551e-08 0)
(2.12763e-07 -2.35382e-08 0)
(2.37316e-07 -2.38562e-08 0)
(2.62334e-07 -2.42124e-08 0)
(2.8788e-07 -2.46103e-08 0)
(3.14009e-07 -2.50488e-08 0)
(3.40779e-07 -2.55312e-08 0)
(3.68253e-07 -2.60637e-08 0)
(3.96494e-07 -2.66475e-08 0)
(4.25564e-07 -2.72811e-08 0)
(4.55535e-07 -2.79644e-08 0)
(4.86493e-07 -2.87064e-08 0)
(5.18528e-07 -2.9518e-08 0)
(5.51732e-07 -3.04e-08 0)
(5.86193e-07 -3.13493e-08 0)
(6.22016e-07 -3.23732e-08 0)
(6.59307e-07 -3.34873e-08 0)
(6.98173e-07 -3.46986e-08 0)
(7.38726e-07 -3.59998e-08 0)
(7.81096e-07 -3.73878e-08 0)
(8.25445e-07 -3.88799e-08 0)
(8.71945e-07 -4.05002e-08 0)
(9.20767e-07 -4.22616e-08 0)
(9.72083e-07 -4.4163e-08 0)
(1.02608e-06 -4.62058e-08 0)
(1.08296e-06 -4.84073e-08 0)
(1.14298e-06 -5.07853e-08 0)
(1.20637e-06 -5.33508e-08 0)
(1.27344e-06 -5.61272e-08 0)
(1.34451e-06 -5.91498e-08 0)
(1.41992e-06 -6.24458e-08 0)
(1.50004e-06 -6.60283e-08 0)
(1.58523e-06 -6.991e-08 0)
(1.67594e-06 -7.41201e-08 0)
(1.77267e-06 -7.86984e-08 0)
(1.87595e-06 -8.36787e-08 0)
(1.98639e-06 -8.91066e-08 0)
(2.10465e-06 -9.50556e-08 0)
(2.23147e-06 -1.01594e-07 0)
(2.36766e-06 -1.0876e-07 0)
(2.51403e-06 -1.16583e-07 0)
(2.67154e-06 -1.25116e-07 0)
(2.84126e-06 -1.34453e-07 0)
(3.0244e-06 -1.44702e-07 0)
(3.22226e-06 -1.5596e-07 0)
(3.43624e-06 -1.68314e-07 0)
(3.66786e-06 -1.8185e-07 0)
(3.91882e-06 -1.96676e-07 0)
(4.19098e-06 -2.12932e-07 0)
(4.48633e-06 -2.30747e-07 0)
(4.80705e-06 -2.50242e-07 0)
(5.15543e-06 -2.71528e-07 0)
(5.53396e-06 -2.94718e-07 0)
(5.94529e-06 -3.19934e-07 0)
(6.39221e-06 -3.4729e-07 0)
(6.87761e-06 -3.7688e-07 0)
(7.40448e-06 -4.08767e-07 0)
(7.97585e-06 -4.42971e-07 0)
(8.5947e-06 -4.79462e-07 0)
(9.26393e-06 -5.18151e-07 0)
(9.98623e-06 -5.5887e-07 0)
(1.07639e-05 -6.01336e-07 0)
(1.15989e-05 -6.45159e-07 0)
(1.24924e-05 -6.89793e-07 0)
(1.34445e-05 -7.34493e-07 0)
(1.44544e-05 -7.78322e-07 0)
(1.55197e-05 -8.20109e-07 0)
(1.66363e-05 -8.58407e-07 0)
(1.77978e-05 -8.91499e-07 0)
(1.89954e-05 -9.17327e-07 0)
(2.02172e-05 -9.33519e-07 0)
(2.1448e-05 -9.37397e-07 0)
(2.26689e-05 -9.2596e-07 0)
(2.38568e-05 -8.95968e-07 0)
(2.49843e-05 -8.43982e-07 0)
(2.60196e-05 -7.6646e-07 0)
(2.69265e-05 -6.59914e-07 0)
(2.76645e-05 -5.21084e-07 0)
(2.81899e-05 -3.47245e-07 0)
(2.84562e-05 -1.36486e-07 0)
(2.8416e-05 1.1188e-07 0)
(2.80228e-05 3.96801e-07 0)
(2.7234e-05 7.14911e-07 0)
(2.60142e-05 1.05972e-06 0)
(2.43401e-05 1.42067e-06 0)
(2.2206e-05 1.78197e-06 0)
(1.96308e-05 2.12112e-06 0)
(1.66666e-05 2.40716e-06 0)
(1.34081e-05 2.59867e-06 0)
(1.00031e-05 2.64239e-06 0)
(6.66206e-06 2.4739e-06 0)
(3.65976e-06 2.02771e-06 0)
(1.33364e-06 1.26735e-06 0)
(7.30748e-08 3.17287e-07 0)
(-1.63731e-07 1.19533e-06 0)
(-2.06841e-06 3.37903e-06 0)
(-5.27021e-06 4.98144e-06 0)
(-9.2638e-06 5.91713e-06 0)
(-1.36428e-05 6.26964e-06 0)
(-1.80857e-05 6.16453e-06 0)
(-2.23391e-05 5.72872e-06 0)
(-2.62202e-05 5.07278e-06 0)
(-2.96076e-05 4.28688e-06 0)
(-3.24313e-05 3.44124e-06 0)
(-3.46624e-05 2.58893e-06 0)
(-3.6304e-05 1.76829e-06 0)
(-3.73826e-05 1.00588e-06 0)
(-3.79409e-05 3.18632e-07 0)
(-3.80322e-05 -2.84048e-07 0)
(-3.77154e-05 -7.98505e-07 0)
(-3.70517e-05 -1.22538e-06 0)
(-3.61013e-05 -1.56855e-06 0)
(-3.49217e-05 -1.83397e-06 0)
(-3.35661e-05 -2.02906e-06 0)
(-3.20825e-05 -2.16194e-06 0)
(-3.05135e-05 -2.24088e-06 0)
(-2.88958e-05 -2.27415e-06 0)
(-2.72605e-05 -2.2695e-06 0)
(-2.56333e-05 -2.2342e-06 0)
(-2.4035e-05 -2.17484e-06 0)
(-2.24819e-05 -2.09716e-06 0)
(-2.09863e-05 -2.00612e-06 0)
(-1.95572e-05 -1.90604e-06 0)
(-1.82005e-05 -1.80047e-06 0)
(-1.69198e-05 -1.69235e-06 0)
(-1.57165e-05 -1.58406e-06 0)
(-1.45907e-05 -1.47745e-06 0)
(-1.3541e-05 -1.37385e-06 0)
(-1.25651e-05 -1.27437e-06 0)
(-1.16601e-05 -1.17966e-06 0)
(-1.08225e-05 -1.09017e-06 0)
(-1.00486e-05 -1.00618e-06 0)
(-9.33448e-06 -9.27831e-07 0)
(-8.67602e-06 -8.55054e-07 0)
(-8.06938e-06 -7.87655e-07 0)
(-7.51072e-06 -7.25553e-07 0)
(-6.99631e-06 -6.68367e-07 0)
(-6.52259e-06 -6.1586e-07 0)
(-6.08629e-06 -5.67818e-07 0)
(-5.68426e-06 -5.23853e-07 0)
(-5.31359e-06 -4.83649e-07 0)
(-4.97161e-06 -4.46973e-07 0)
(-4.65584e-06 -4.13523e-07 0)
(-4.36398e-06 -3.82985e-07 0)
(-4.09394e-06 -3.55136e-07 0)
(-3.84386e-06 -3.2976e-07 0)
(-3.61198e-06 -3.06604e-07 0)
(-3.39669e-06 -2.85453e-07 0)
(-3.19658e-06 -2.66146e-07 0)
(-3.01032e-06 -2.4852e-07 0)
(-2.83671e-06 -2.3241e-07 0)
(-2.67468e-06 -2.17674e-07 0)
(-2.52325e-06 -2.04182e-07 0)
(-2.38156e-06 -1.91812e-07 0)
(-2.24879e-06 -1.80459e-07 0)
(-2.1242e-06 -1.70035e-07 0)
(-2.00712e-06 -1.60463e-07 0)
(-1.89695e-06 -1.51667e-07 0)
(-1.79312e-06 -1.43577e-07 0)
(-1.69515e-06 -1.36126e-07 0)
(-1.60258e-06 -1.29252e-07 0)
(-1.515e-06 -1.22903e-07 0)
(-1.43202e-06 -1.17037e-07 0)
(-1.35328e-06 -1.11621e-07 0)
(-1.27845e-06 -1.06622e-07 0)
(-1.20724e-06 -1.01998e-07 0)
(-1.13937e-06 -9.77171e-08 0)
(-1.07461e-06 -9.37498e-08 0)
(-1.01271e-06 -9.00859e-08 0)
(-9.53481e-07 -8.67058e-08 0)
(-8.96706e-07 -8.35825e-08 0)
(-8.42202e-07 -8.06869e-08 0)
(-7.89792e-07 -7.79991e-08 0)
(-7.39318e-07 -7.55229e-08 0)
(-6.90638e-07 -7.32441e-08 0)
(-6.43626e-07 -7.1145e-08 0)
(-5.98147e-07 -6.92106e-08 0)
(-5.54063e-07 -6.74413e-08 0)
(-5.11244e-07 -6.584e-08 0)
(-4.69588e-07 -6.43786e-08 0)
(-4.29019e-07 -6.30235e-08 0)
(-3.89441e-07 -6.17697e-08 0)
(-3.50737e-07 -6.06417e-08 0)
(-3.12803e-07 -5.96625e-08 0)
(-2.75561e-07 -5.88192e-08 0)
(-2.38945e-07 -5.80782e-08 0)
(-2.02877e-07 -5.74261e-08 0)
(-1.6727e-07 -5.68673e-08 0)
(-1.32038e-07 -5.64014e-08 0)
(-9.7112e-08 -5.60251e-08 0)
(-6.24304e-08 -5.57417e-08 0)
(-2.79251e-08 -5.55581e-08 0)
(6.47862e-09 -5.54775e-08 0)
(4.08529e-08 -5.54941e-08 0)
(7.52702e-08 -5.56004e-08 0)
(1.09803e-07 -5.57957e-08 0)
(1.44518e-07 -5.60808e-08 0)
(1.7948e-07 -5.64558e-08 0)
(2.14762e-07 -5.69226e-08 0)
(2.50436e-07 -5.74862e-08 0)
(2.86575e-07 -5.81542e-08 0)
(3.23255e-07 -5.89304e-08 0)
(3.60552e-07 -5.98098e-08 0)
(3.98554e-07 -6.07921e-08 0)
(4.37351e-07 -6.18852e-08 0)
(4.7703e-07 -6.30945e-08 0)
(5.1768e-07 -6.4427e-08 0)
(5.59398e-07 -6.58953e-08 0)
(6.02287e-07 -6.75094e-08 0)
(6.46448e-07 -6.92736e-08 0)
(6.91989e-07 -7.1188e-08 0)
(7.39023e-07 -7.32581e-08 0)
(7.87689e-07 -7.55e-08 0)
(8.38129e-07 -7.79283e-08 0)
(8.90484e-07 -8.05501e-08 0)
(9.44897e-07 -8.3378e-08 0)
(1.00153e-06 -8.64375e-08 0)
(1.06056e-06 -8.97565e-08 0)
(1.12218e-06 -9.33474e-08 0)
(1.18659e-06 -9.72107e-08 0)
(1.25399e-06 -1.01359e-07 0)
(1.32464e-06 -1.05825e-07 0)
(1.39881e-06 -1.10649e-07 0)
(1.47677e-06 -1.15867e-07 0)
(1.55882e-06 -1.21507e-07 0)
(1.64527e-06 -1.27607e-07 0)
(1.73649e-06 -1.34209e-07 0)
(1.83287e-06 -1.41344e-07 0)
(1.93483e-06 -1.49047e-07 0)
(2.04283e-06 -1.5738e-07 0)
(2.1574e-06 -1.66423e-07 0)
(2.27912e-06 -1.76263e-07 0)
(2.40857e-06 -1.86979e-07 0)
(2.54643e-06 -1.98643e-07 0)
(2.69345e-06 -2.11345e-07 0)
(2.85044e-06 -2.25181e-07 0)
(3.01828e-06 -2.40248e-07 0)
(3.19794e-06 -2.56673e-07 0)
(3.39055e-06 -2.74622e-07 0)
(3.59733e-06 -2.94286e-07 0)
(3.8196e-06 -3.15842e-07 0)
(4.0588e-06 -3.3945e-07 0)
(4.31651e-06 -3.65289e-07 0)
(4.59449e-06 -3.9359e-07 0)
(4.89471e-06 -4.2461e-07 0)
(5.21928e-06 -4.58622e-07 0)
(5.57052e-06 -4.95896e-07 0)
(5.95092e-06 -5.36718e-07 0)
(6.36325e-06 -5.81403e-07 0)
(6.81047e-06 -6.30283e-07 0)
(7.29583e-06 -6.83703e-07 0)
(7.82275e-06 -7.41998e-07 0)
(8.39491e-06 -8.05472e-07 0)
(9.01618e-06 -8.74417e-07 0)
(9.69063e-06 -9.49102e-07 0)
(1.04225e-05 -1.02973e-06 0)
(1.12161e-05 -1.11642e-06 0)
(1.20757e-05 -1.20922e-06 0)
(1.30057e-05 -1.30798e-06 0)
(1.40101e-05 -1.41239e-06 0)
(1.50926e-05 -1.52192e-06 0)
(1.62563e-05 -1.63574e-06 0)
(1.75036e-05 -1.75266e-06 0)
(1.88357e-05 -1.87111e-06 0)
(2.02524e-05 -1.989e-06 0)
(2.17519e-05 -2.1037e-06 0)
(2.33298e-05 -2.21191e-06 0)
(2.49792e-05 -2.30964e-06 0)
(2.669e-05 -2.39214e-06 0)
(2.84481e-05 -2.45388e-06 0)
(3.02353e-05 -2.48845e-06 0)
(3.20282e-05 -2.48867e-06 0)
(3.3798e-05 -2.44661e-06 0)
(3.55101e-05 -2.35376e-06 0)
(3.71239e-05 -2.20118e-06 0)
(3.85923e-05 -1.97989e-06 0)
(3.98625e-05 -1.68121e-06 0)
(4.08758e-05 -1.29731e-06 0)
(4.15695e-05 -8.21952e-07 0)
(4.18779e-05 -2.51353e-07 0)
(4.17347e-05 4.14755e-07 0)
(4.10765e-05 1.17177e-06 0)
(3.98462e-05 2.00873e-06 0)
(3.7999e-05 2.90641e-06 0)
(3.5508e-05 3.8352e-06 0)
(3.23726e-05 4.75249e-06 0)
(2.86272e-05 5.59997e-06 0)
(2.43511e-05 6.30066e-06 0)
(1.968e-05 6.75642e-06 0)
(1.48162e-05 6.84762e-06 0)
(1.00372e-05 6.43815e-06 0)
(5.69385e-06 5.39532e-06 0)
(2.22463e-06 3.63584e-06 0)
(1.73126e-07 1.2663e-06 0)
(-2.19128e-07 2.45741e-06 0)
(-2.63412e-06 6.34925e-06 0)
(-6.59195e-06 9.06543e-06 0)
(-1.14623e-05 1.06386e-05 0)
(-1.67681e-05 1.12351e-05 0)
(-2.21442e-05 1.10597e-05 0)
(-2.73015e-05 1.03151e-05 0)
(-3.20284e-05 9.18141e-06 0)
(-3.61801e-05 7.80962e-06 0)
(-3.96695e-05 6.32053e-06 0)
(-4.24569e-05 4.80753e-06 0)
(-4.45401e-05 3.33997e-06 0)
(-4.59451e-05 1.96708e-06 0)
(-4.67185e-05 7.21288e-07 0)
(-4.69205e-05 -3.78286e-07 0)
(-4.66191e-05 -1.32313e-06 0)
(-4.5886e-05 -2.11277e-06 0)
(-4.47929e-05 -2.75265e-06 0)
(-4.34087e-05 -3.25245e-06 0)
(-4.17981e-05 -3.62456e-06 0)
(-4.00197e-05 -3.883e-06 0)
(-3.81259e-05 -4.04237e-06 0)
(-3.61626e-05 -4.11726e-06 0)
(-3.41684e-05 -4.12156e-06 0)
(-3.21762e-05 -4.06841e-06 0)
(-3.02123e-05 -3.96963e-06 0)
(-2.82977e-05 -3.83584e-06 0)
(-2.64486e-05 -3.67629e-06 0)
(-2.4677e-05 -3.49886e-06 0)
(-2.29911e-05 -3.31016e-06 0)
(-2.1396e-05 -3.11573e-06 0)
(-1.98942e-05 -2.92003e-06 0)
(-1.84864e-05 -2.72647e-06 0)
(-1.71713e-05 -2.53788e-06 0)
(-1.59468e-05 -2.35617e-06 0)
(-1.48093e-05 -2.1828e-06 0)
(-1.37551e-05 -2.01864e-06 0)
(-1.27797e-05 -1.86432e-06 0)
(-1.18785e-05 -1.71997e-06 0)
(-1.10466e-05 -1.58569e-06 0)
(-1.02794e-05 -1.46123e-06 0)
(-9.5721e-06 -1.34632e-06 0)
(-8.92016e-06 -1.24044e-06 0)
(-8.31937e-06 -1.14314e-06 0)
(-7.76558e-06 -1.05396e-06 0)
(-7.25483e-06 -9.72302e-07 0)
(-6.78364e-06 -8.97611e-07 0)
(-6.34869e-06 -8.29386e-07 0)
(-5.94681e-06 -7.6709e-07 0)
(-5.57514e-06 -7.10227e-07 0)
(-5.23114e-06 -6.58359e-07 0)
(-4.9124e-06 -6.11038e-07 0)
(-4.61671e-06 -5.67841e-07 0)
(-4.3421e-06 -5.28404e-07 0)
(-4.08676e-06 -4.92387e-07 0)
(-3.84903e-06 -4.59466e-07 0)
(-3.62739e-06 -4.29359e-07 0)
(-3.42049e-06 -4.01815e-07 0)
(-3.22708e-06 -3.76601e-07 0)
(-3.04605e-06 -3.53493e-07 0)
(-2.87638e-06 -3.32291e-07 0)
(-2.71715e-06 -3.12823e-07 0)
(-2.56751e-06 -2.9493e-07 0)
(-2.42667e-06 -2.78468e-07 0)
(-2.29395e-06 -2.63316e-07 0)
(-2.16868e-06 -2.49368e-07 0)
(-2.05031e-06 -2.36516e-07 0)
(-1.9383e-06 -2.24655e-07 0)
(-1.83216e-06 -2.13697e-07 0)
(-1.73145e-06 -2.03567e-07 0)
(-1.63574e-06 -1.94204e-07 0)
(-1.54464e-06 -1.85551e-07 0)
(-1.45782e-06 -1.77551e-07 0)
(-1.37496e-06 -1.70145e-07 0)
(-1.29578e-06 -1.63295e-07 0)
(-1.22e-06 -1.56957e-07 0)
(-1.14736e-06 -1.51099e-07 0)
(-1.07762e-06 -1.45674e-07 0)
(-1.01056e-06 -1.40658e-07 0)
(-9.45981e-07 -1.36029e-07 0)
(-8.83691e-07 -1.3177e-07 0)
(-8.2352e-07 -1.27851e-07 0)
(-7.65308e-07 -1.24235e-07 0)
(-7.08901e-07 -1.209e-07 0)
(-6.54134e-07 -1.17848e-07 0)
(-6.0084e-07 -1.15082e-07 0)
(-5.48898e-07 -1.12579e-07 0)
(-4.98209e-07 -1.103e-07 0)
(-4.48661e-07 -1.0823e-07 0)
(-4.00127e-07 -1.06376e-07 0)
(-3.52483e-07 -1.0474e-07 0)
(-3.05624e-07 -1.03312e-07 0)
(-2.59458e-07 -1.02078e-07 0)
(-2.13882e-07 -1.01028e-07 0)
(-1.68788e-07 -1.00161e-07 0)
(-1.24082e-07 -9.94801e-08 0)
(-7.96833e-08 -9.89797e-08 0)
(-3.551e-08 -9.86524e-08 0)
(8.52841e-09 -9.84953e-08 0)
(5.25272e-08 -9.85066e-08 0)
(9.65789e-08 -9.8685e-08 0)
(1.40776e-07 -9.90369e-08 0)
(1.85208e-07 -9.95676e-08 0)
(2.29962e-07 -1.00276e-07 0)
(2.75127e-07 -1.01163e-07 0)
(3.20791e-07 -1.0223e-07 0)
(3.67045e-07 -1.03485e-07 0)
(4.13995e-07 -1.04935e-07 0)
(4.61745e-07 -1.06583e-07 0)
(5.10397e-07 -1.08431e-07 0)
(5.60066e-07 -1.10489e-07 0)
(6.10861e-07 -1.12768e-07 0)
(6.62895e-07 -1.15275e-07 0)
(7.16288e-07 -1.18027e-07 0)
(7.71173e-07 -1.21039e-07 0)
(8.27689e-07 -1.24328e-07 0)
(8.8598e-07 -1.2791e-07 0)
(9.46188e-07 -1.31793e-07 0)
(1.00848e-06 -1.35996e-07 0)
(1.07304e-06 -1.40544e-07 0)
(1.14005e-06 -1.45465e-07 0)
(1.20969e-06 -1.50779e-07 0)
(1.28217e-06 -1.5651e-07 0)
(1.3577e-06 -1.62695e-07 0)
(1.43655e-06 -1.69377e-07 0)
(1.51898e-06 -1.76592e-07 0)
(1.60525e-06 -1.84371e-07 0)
(1.69568e-06 -1.92751e-07 0)
(1.79058e-06 -2.01783e-07 0)
(1.89033e-06 -2.11535e-07 0)
(1.99529e-06 -2.22069e-07 0)
(2.10588e-06 -2.33453e-07 0)
(2.22257e-06 -2.45773e-07 0)
(2.34586e-06 -2.59117e-07 0)
(2.4763e-06 -2.73567e-07 0)
(2.61447e-06 -2.89212e-07 0)
(2.761e-06 -3.06163e-07 0)
(2.91663e-06 -3.24564e-07 0)
(3.08212e-06 -3.4457e-07 0)
(3.25833e-06 -3.66336e-07 0)
(3.44622e-06 -3.90042e-07 0)
(3.64683e-06 -4.159e-07 0)
(3.8613e-06 -4.44116e-07 0)
(4.09085e-06 -4.74898e-07 0)
(4.33685e-06 -5.08491e-07 0)
(4.60084e-06 -5.452e-07 0)
(4.88449e-06 -5.85377e-07 0)
(5.18967e-06 -6.29376e-07 0)
(5.51836e-06 -6.77565e-07 0)
(5.87278e-06 -7.30348e-07 0)
(6.25535e-06 -7.88164e-07 0)
(6.66876e-06 -8.51506e-07 0)
(7.1159e-06 -9.20896e-07 0)
(7.59991e-06 -9.96871e-07 0)
(8.12421e-06 -1.07999e-06 0)
(8.69251e-06 -1.17082e-06 0)
(9.30877e-06 -1.26996e-06 0)
(9.97727e-06 -1.37802e-06 0)
(1.07025e-05 -1.49555e-06 0)
(1.14893e-05 -1.62308e-06 0)
(1.23426e-05 -1.76106e-06 0)
(1.32675e-05 -1.9098e-06 0)
(1.42693e-05 -2.06949e-06 0)
(1.53531e-05 -2.2401e-06 0)
(1.6524e-05 -2.42132e-06 0)
(1.77867e-05 -2.6125e-06 0)
(1.91456e-05 -2.81255e-06 0)
(2.06039e-05 -3.01982e-06 0)
(2.21642e-05 -3.23203e-06 0)
(2.38274e-05 -3.44613e-06 0)
(2.55926e-05 -3.65816e-06 0)
(2.74566e-05 -3.86315e-06 0)
(2.94134e-05 -4.05495e-06 0)
(3.14536e-05 -4.22612e-06 0)
(3.35635e-05 -4.36788e-06 0)
(3.57249e-05 -4.47001e-06 0)
(3.79141e-05 -4.52083e-06 0)
(4.01013e-05 -4.5073e-06 0)
(4.22504e-05 -4.41513e-06 0)
(4.4318e-05 -4.22906e-06 0)
(4.62535e-05 -3.93328e-06 0)
(4.79989e-05 -3.51201e-06 0)
(4.94895e-05 -2.95031e-06 0)
(5.06546e-05 -2.23506e-06 0)
(5.14185e-05 -1.35628e-06 0)
(5.17033e-05 -3.08723e-07 0)
(5.14313e-05 9.06215e-07 0)
(5.0529e-05 2.27818e-06 0)
(4.89323e-05 3.78519e-06 0)
(4.65923e-05 5.39057e-06 0)
(4.34831e-05 7.03947e-06 0)
(3.961e-05 8.65506e-06 0)
(3.50197e-05 1.01346e-05 0)
(2.98106e-05 1.13461e-05 0)
(2.41438e-05 1.21253e-05 0)
(1.82533e-05 1.22778e-05 0)
(1.24556e-05 1.15863e-05 0)
(7.14872e-06 9.83443e-06 0)
(2.84847e-06 6.85295e-06 0)
(2.34702e-07 2.62623e-06 0)
(-2.45838e-07 3.95308e-06 0)
(-2.96525e-06 9.83148e-06 0)
(-7.39987e-06 1.38073e-05 0)
(-1.28317e-05 1.60861e-05 0)
(-1.87335e-05 1.69489e-05 0)
(-2.47122e-05 1.66948e-05 0)
(-3.04581e-05 1.56095e-05 0)
(-3.57433e-05 1.39472e-05 0)
(-4.04097e-05 1.19232e-05 0)
(-4.43597e-05 9.71281e-06 0)
(-4.75454e-05 7.45378e-06 0)
(-4.99595e-05 5.25039e-06 0)
(-5.16256e-05 3.17789e-06 0)
(-5.25903e-05 1.28726e-06 0)
(-5.29162e-05 -3.90406e-07 0)
(-5.26753e-05 -1.84e-06 0)
(-5.19445e-05 -3.0587e-06 0)
(-5.08017e-05 -4.053e-06 0)
(-4.93225e-05 -4.83604e-06 0)
(-4.75783e-05 -5.42532e-06 0)
(-4.56346e-05 -5.84116e-06 0)
(-4.35501e-05 -6.10507e-06 0)
(-4.13766e-05 -6.23868e-06 0)
(-3.91585e-05 -6.26291e-06 0)
(-3.69332e-05 -6.19747e-06 0)
(-3.47315e-05 -6.06029e-06 0)
(-3.2578e-05 -5.86758e-06 0)
(-3.0492e-05 -5.63355e-06 0)
(-2.84877e-05 -5.37032e-06 0)
(-2.65755e-05 -5.08828e-06 0)
(-2.47619e-05 -4.79596e-06 0)
(-2.30506e-05 -4.50033e-06 0)
(-2.1443e-05 -4.2069e-06 0)
(-1.99385e-05 -3.92002e-06 0)
(-1.85349e-05 -3.64283e-06 0)
(-1.72289e-05 -3.37771e-06 0)
(-1.60164e-05 -3.12624e-06 0)
(-1.48929e-05 -2.8893e-06 0)
(-1.38532e-05 -2.6674e-06 0)
(-1.28923e-05 -2.46054e-06 0)
(-1.20049e-05 -2.26862e-06 0)
(-1.11858e-05 -2.0911e-06 0)
(-1.043e-05 -1.92743e-06 0)
(-9.7327e-06 -1.77691e-06 0)
(-9.08931e-06 -1.63869e-06 0)
(-8.49541e-06 -1.51202e-06 0)
(-7.94699e-06 -1.39615e-06 0)
(-7.4403e-06 -1.29019e-06 0)
(-6.97178e-06 -1.19334e-06 0)
(-6.53822e-06 -1.1049e-06 0)
(-6.13664e-06 -1.02418e-06 0)
(-5.7643e-06 -9.50462e-07 0)
(-5.4187e-06 -8.83152e-07 0)
(-5.09757e-06 -8.21688e-07 0)
(-4.79881e-06 -7.65531e-07 0)
(-4.52051e-06 -7.14184e-07 0)
(-4.26096e-06 -6.67208e-07 0)
(-4.01857e-06 -6.24207e-07 0)
(-3.79192e-06 -5.84817e-07 0)
(-3.5797e-06 -5.48705e-07 0)
(-3.38073e-06 -5.15575e-07 0)
(-3.19394e-06 -4.85157e-07 0)
(-3.01835e-06 -4.57199e-07 0)
(-2.85305e-06 -4.31475e-07 0)
(-2.69724e-06 -4.07787e-07 0)
(-2.55018e-06 -3.85961e-07 0)
(-2.41117e-06 -3.65843e-07 0)
(-2.2796e-06 -3.47284e-07 0)
(-2.1549e-06 -3.30146e-07 0)
(-2.03656e-06 -3.14308e-07 0)
(-1.92408e-06 -2.9966e-07 0)
(-1.81702e-06 -2.86116e-07 0)
(-1.71497e-06 -2.73591e-07 0)
(-1.61757e-06 -2.62008e-07 0)
(-1.52447e-06 -2.51292e-07 0)
(-1.43536e-06 -2.41373e-07 0)
(-1.34993e-06 -2.32194e-07 0)
(-1.2679e-06 -2.237e-07 0)
(-1.18903e-06 -2.15854e-07 0)
(-1.11308e-06 -2.08604e-07 0)
(-1.03982e-06 -2.01922e-07 0)
(-9.69029e-07 -1.95779e-07 0)
(-9.0052e-07 -1.9013e-07 0)
(-8.34124e-07 -1.84931e-07 0)
(-7.69674e-07 -1.80148e-07 0)
(-7.06984e-07 -1.75775e-07 0)
(-6.45879e-07 -1.71815e-07 0)
(-5.86222e-07 -1.68246e-07 0)
(-5.27889e-07 -1.65033e-07 0)
(-4.70748e-07 -1.6215e-07 0)
(-4.14664e-07 -1.59587e-07 0)
(-3.59507e-07 -1.57341e-07 0)
(-3.05158e-07 -1.554e-07 0)
(-2.51499e-07 -1.53749e-07 0)
(-1.98417e-07 -1.52382e-07 0)
(-1.45799e-07 -1.51303e-07 0)
(-9.35367e-08 -1.50513e-07 0)
(-4.15297e-08 -1.50003e-07 0)
(1.03261e-08 -1.49762e-07 0)
(6.21378e-08 -1.49786e-07 0)
(1.14008e-07 -1.50072e-07 0)
(1.66043e-07 -1.50626e-07 0)
(2.18351e-07 -1.51456e-07 0)
(2.71039e-07 -1.52564e-07 0)
(3.24212e-07 -1.53955e-07 0)
(3.77974e-07 -1.55635e-07 0)
(4.32432e-07 -1.57607e-07 0)
(4.87707e-07 -1.59877e-07 0)
(5.43923e-07 -1.62455e-07 0)
(6.01199e-07 -1.6535e-07 0)
(6.59668e-07 -1.68578e-07 0)
(7.19462e-07 -1.7216e-07 0)
(7.80714e-07 -1.76109e-07 0)
(8.43565e-07 -1.80439e-07 0)
(9.08166e-07 -1.85167e-07 0)
(9.74679e-07 -1.90319e-07 0)
(1.04328e-06 -1.95923e-07 0)
(1.11413e-06 -2.02004e-07 0)
(1.18744e-06 -2.08585e-07 0)
(1.26339e-06 -2.15703e-07 0)
(1.34223e-06 -2.23404e-07 0)
(1.42416e-06 -2.31733e-07 0)
(1.50943e-06 -2.40722e-07 0)
(1.59828e-06 -2.50409e-07 0)
(1.69102e-06 -2.60851e-07 0)
(1.78795e-06 -2.72119e-07 0)
(1.8894e-06 -2.8428e-07 0)
(1.99573e-06 -2.97401e-07 0)
(2.10732e-06 -3.11551e-07 0)
(2.22458e-06 -3.26827e-07 0)
(2.34796e-06 -3.43327e-07 0)
(2.47794e-06 -3.61149e-07 0)
(2.61505e-06 -3.8041e-07 0)
(2.75988e-06 -4.01254e-07 0)
(2.91309e-06 -4.23835e-07 0)
(3.07536e-06 -4.48312e-07 0)
(3.24744e-06 -4.74859e-07 0)
(3.43014e-06 -5.03675e-07 0)
(3.62438e-06 -5.34985e-07 0)
(3.83115e-06 -5.69025e-07 0)
(4.05153e-06 -6.06061e-07 0)
(4.28674e-06 -6.46413e-07 0)
(4.53811e-06 -6.90437e-07 0)
(4.80711e-06 -7.38497e-07 0)
(5.0953e-06 -7.90981e-07 0)
(5.40441e-06 -8.48317e-07 0)
(5.73638e-06 -9.11004e-07 0)
(6.09333e-06 -9.79595e-07 0)
(6.4776e-06 -1.05468e-06 0)
(6.89172e-06 -1.13689e-06 0)
(7.33847e-06 -1.2269e-06 0)
(7.82087e-06 -1.32543e-06 0)
(8.34225e-06 -1.43328e-06 0)
(8.9062e-06 -1.55128e-06 0)
(9.51659e-06 -1.68029e-06 0)
(1.01776e-05 -1.82119e-06 0)
(1.08938e-05 -1.97485e-06 0)
(1.16699e-05 -2.14214e-06 0)
(1.2511e-05 -2.3239e-06 0)
(1.34224e-05 -2.52088e-06 0)
(1.44096e-05 -2.73371e-06 0)
(1.54783e-05 -2.96284e-06 0)
(1.66343e-05 -3.20845e-06 0)
(1.78831e-05 -3.4704e-06 0)
(1.92302e-05 -3.74812e-06 0)
(2.06806e-05 -4.04047e-06 0)
(2.22387e-05 -4.34563e-06 0)
(2.39078e-05 -4.66096e-06 0)
(2.56902e-05 -4.98277e-06 0)
(2.75861e-05 -5.30619e-06 0)
(2.95939e-05 -5.62501e-06 0)
(3.17091e-05 -5.93139e-06 0)
(3.39239e-05 -6.21578e-06 0)
(3.62268e-05 -6.46666e-06 0)
(3.86012e-05 -6.67048e-06 0)
(4.10256e-05 -6.81155e-06 0)
(4.34722e-05 -6.87206e-06 0)
(4.59066e-05 -6.83222e-06 0)
(4.82872e-05 -6.67047e-06 0)
(5.05645e-05 -6.364e-06 0)
(5.26812e-05 -5.88933e-06 0)
(5.45725e-05 -5.22326e-06 0)
(5.61661e-05 -4.34416e-06 0)
(5.73837e-05 -3.23348e-06 0)
(5.81425e-05 -1.87776e-06 0)
(5.83578e-05 -2.71047e-07 0)
(5.79463e-05 1.58232e-06 0)
(5.683e-05 3.66429e-06 0)
(5.49425e-05 5.9393e-06 0)
(5.22349e-05 8.34996e-06 0)
(4.86839e-05 1.08124e-05 0)
(4.43006e-05 1.32115e-05 0)
(3.91405e-05 1.53956e-05 0)
(3.33136e-05 1.71733e-05 0)
(2.69957e-05 1.83107e-05 0)
(2.04382e-05 1.85335e-05 0)
(1.39799e-05 1.75356e-05 0)
(8.04981e-06 1.50003e-05 0)
(3.21917e-06 1.06369e-05 0)