/*--------------------------------*- C++ -*----------------------------------*\
| =========                 |                                                 |
| \\      /  F ield         | OpenFOAM: The Open Source CFD Toolbox           |
|  \\    /   O peration     | Version:  2412                                  |
|   \\  /    A nd           | Website:  www.openfoam.com                      |
|    \\/     M anipulation  |                                                 |
\*---------------------------------------------------------------------------*/
FoamFile
{
    version     2.0;
    format      ascii;
    arch        "LSB;label=32;scalar=64";
    class       volScalarField;
    location    "800";
    object      p;
}
// * * * * * * * * * * * * * * * * * * * * * * * * * * * * * * * * * * * * * //

dimensions      [0 2 -2 0 0 0 0];

internalField   nonuniform List<scalar> 
900
(
0
-3.89918e-06
-4.83811e-06
-9.47731e-07
7.77502e-06
2.07152e-05
3.67984e-05
5.47458e-05
7.31956e-05
9.07898e-05
0.000106256
0.000118468
0.000126499
0.000129664
0.000127545
0.000120014
0.000107243
8.97014e-05
6.81338e-05
4.35364e-05
1.71143e-05
-9.76798e-06
-3.56527e-05
-5.90556e-05
-7.85476e-05
-9.28736e-05
-0.000101119
-0.000103011
-9.93226e-05
-9.24406e-05
-0.00131789
-0.0013226
-0.00132349
-0.00131996
-0.00131241
-0.00130139
-0.00128782
-0.00127274
-0.00125729
-0.00124263
-0.00122982
-0.00121982
-0.00121342
-0.0012112
-0.00121352
-0.00122047
-0.0012319
-0.0012474
-0.00126633
-0.00128782
-0.00131083
-0.00133421
-0.00135671
-0.0013771
-0.00139418
-0.00140693
-0.00141459
-0.00141687
-0.00141387
-0.00140662
-0.00396023
-0.00396616
-0.00396773
-0.00396496
-0.00395862
-0.00394929
-0.00393778
-0.00392502
-0.00391199
-0.00389966
-0.00388896
-0.0038807
-0.00387557
-0.00387407
-0.00387648
-0.00388291
-0.0038932
-0.00390699
-0.00392372
-0.00394264
-0.00396285
-0.00398334
-0.00400304
-0.00402088
-0.00403585
-0.00404703
-0.00405371
-0.00405548
-0.00405178
-0.00404274
-0.00792303
-0.00793011
-0.00793258
-0.00793072
-0.00792554
-0.00791765
-0.00790784
-0.00789695
-0.00788583
-0.00787534
-0.0078663
-0.0078594
-0.00785524
-0.00785425
-0.00785668
-0.00786262
-0.00787192
-0.00788427
-0.00789916
-0.00791595
-0.00793382
-0.00795192
-0.00796929
-0.00798498
-0.00799809
-0.00800777
-0.00801328
-0.00801409
-0.0080092
-0.0079983
-0.0131992
-0.013207
-0.0132101
-0.0132091
-0.013205
-0.0131983
-0.01319
-0.0131807
-0.0131712
-0.0131623
-0.0131546
-0.0131489
-0.0131455
-0.0131449
-0.0131473
-0.0131527
-0.0131611
-0.0131722
-0.0131854
-0.0132003
-0.0132161
-0.0132321
-0.0132474
-0.0132611
-0.0132725
-0.0132808
-0.0132851
-0.013285
-0.0132791
-0.0132669
-0.0197788
-0.0197867
-0.0197902
-0.0197898
-0.0197866
-0.0197811
-0.0197741
-0.0197661
-0.0197581
-0.0197505
-0.019744
-0.0197391
-0.0197364
-0.0197361
-0.0197384
-0.0197434
-0.0197509
-0.0197607
-0.0197725
-0.0197857
-0.0197996
-0.0198137
-0.0198271
-0.0198391
-0.0198489
-0.0198558
-0.0198591
-0.0198581
-0.0198516
-0.0198389
-0.027649
-0.0276566
-0.0276603
-0.0276604
-0.0276579
-0.0276534
-0.0276474
-0.0276407
-0.0276339
-0.0276274
-0.027622
-0.0276179
-0.0276157
-0.0276157
-0.0276178
-0.0276223
-0.027629
-0.0276377
-0.0276481
-0.0276596
-0.0276719
-0.0276841
-0.0276958
-0.0277062
-0.0277146
-0.0277203
-0.0277227
-0.0277211
-0.0277143
-0.0277017
-0.0367949
-0.036802
-0.0368056
-0.0368059
-0.036804
-0.0368003
-0.0367954
-0.0367898
-0.036784
-0.0367786
-0.0367741
-0.0367708
-0.036769
-0.0367691
-0.0367711
-0.0367751
-0.036781
-0.0367886
-0.0367976
-0.0368076
-0.0368182
-0.0368288
-0.0368388
-0.0368477
-0.0368548
-0.0368595
-0.0368611
-0.0368592
-0.0368525
-0.0368406
-0.0471995
-0.0472059
-0.0472092
-0.0472097
-0.0472083
-0.0472053
-0.0472012
-0.0471966
-0.0471919
-0.0471874
-0.0471837
-0.047181
-0.0471796
-0.0471798
-0.0471816
-0.0471851
-0.0471902
-0.0471968
-0.0472045
-0.047213
-0.047222
-0.047231
-0.0472395
-0.0472469
-0.0472528
-0.0472565
-0.0472576
-0.0472556
-0.0472493
-0.0472384
-0.0588441
-0.0588495
-0.0588524
-0.058853
-0.0588519
-0.0588496
-0.0588464
-0.0588426
-0.0588388
-0.0588353
-0.0588323
-0.0588302
-0.0588291
-0.0588294
-0.058831
-0.058834
-0.0588383
-0.0588437
-0.0588502
-0.0588573
-0.0588647
-0.0588722
-0.0588792
-0.0588853
-0.05889
-0.058893
-0.0588936
-0.0588916
-0.058886
-0.0588765
-0.0717082
-0.0717127
-0.071715
-0.0717156
-0.0717148
-0.0717131
-0.0717106
-0.0717077
-0.0717048
-0.071702
-0.0716997
-0.0716981
-0.0716974
-0.0716977
-0.0716991
-0.0717015
-0.071705
-0.0717094
-0.0717146
-0.0717203
-0.0717263
-0.0717322
-0.0717377
-0.0717425
-0.0717462
-0.0717485
-0.0717489
-0.071747
-0.0717423
-0.0717344
-0.0857702
-0.0857735
-0.0857754
-0.0857758
-0.0857753
-0.0857741
-0.0857723
-0.0857702
-0.0857681
-0.0857661
-0.0857645
-0.0857634
-0.0857629
-0.0857632
-0.0857643
-0.0857662
-0.0857689
-0.0857723
-0.0857762
-0.0857805
-0.085785
-0.0857895
-0.0857936
-0.0857972
-0.0857999
-0.0858015
-0.0858017
-0.0858002
-0.0857965
-0.0857903
-0.101007
-0.101009
-0.101011
-0.101011
-0.101011
-0.10101
-0.101009
-0.101007
-0.101006
-0.101005
-0.101004
-0.101003
-0.101003
-0.101003
-0.101004
-0.101005
-0.101007
-0.10101
-0.101012
-0.101015
-0.101018
-0.101021
-0.101024
-0.101026
-0.101028
-0.101029
-0.101029
-0.101028
-0.101026
-0.101021
-0.117395
-0.117396
-0.117397
-0.117397
-0.117397
-0.117397
-0.117396
-0.117395
-0.117395
-0.117394
-0.117394
-0.117394
-0.117394
-0.117394
-0.117395
-0.117395
-0.117396
-0.117398
-0.117399
-0.117401
-0.117402
-0.117404
-0.117405
-0.117407
-0.117408
-0.117408
-0.117408
-0.117407
-0.117406
-0.117403
-0.13491
-0.13491
-0.13491
-0.13491
-0.13491
-0.13491
-0.13491
-0.13491
-0.13491
-0.134911
-0.134911
-0.134911
-0.134911
-0.134911
-0.134911
-0.134912
-0.134912
-0.134912
-0.134913
-0.134913
-0.134913
-0.134913
-0.134913
-0.134914
-0.134914
-0.134914
-0.134914
-0.134913
-0.134913
-0.134913
-0.153527
-0.153526
-0.153525
-0.153525
-0.153525
-0.153526
-0.153526
-0.153527
-0.153528
-0.153529
-0.153529
-0.15353
-0.15353
-0.15353
-0.15353
-0.15353
-0.153529
-0.153529
-0.153528
-0.153527
-0.153526
-0.153524
-0.153523
-0.153522
-0.153522
-0.153521
-0.153521
-0.153521
-0.153522
-0.153524
-0.17322
-0.173218
-0.173217
-0.173217
-0.173217
-0.173218
-0.173219
-0.173221
-0.173222
-0.173224
-0.173225
-0.173226
-0.173226
-0.173226
-0.173226
-0.173225
-0.173224
-0.173222
-0.17322
-0.173218
-0.173215
-0.173213
-0.17321
-0.173208
-0.173207
-0.173206
-0.173206
-0.173206
-0.173208
-0.173212
-0.193967
-0.193963
-0.193962
-0.193961
-0.193962
-0.193963
-0.193965
-0.193967
-0.193969
-0.193971
-0.193973
-0.193974
-0.193975
-0.193975
-0.193974
-0.193973
-0.193971
-0.193968
-0.193965
-0.193961
-0.193957
-0.193953
-0.19395
-0.193947
-0.193944
-0.193943
-0.193943
-0.193944
-0.193947
-0.193952
-0.215741
-0.215737
-0.215735
-0.215734
-0.215735
-0.215736
-0.215739
-0.215741
-0.215744
-0.215747
-0.215749
-0.21575
-0.215751
-0.215751
-0.21575
-0.215748
-0.215745
-0.215742
-0.215737
-0.215733
-0.215728
-0.215723
-0.215718
-0.215714
-0.21571
-0.215708
-0.215708
-0.21571
-0.215714
-0.215721
-0.238519
-0.238514
-0.238512
-0.238511
-0.238512
-0.238514
-0.238517
-0.23852
-0.238524
-0.238527
-0.238529
-0.238531
-0.238532
-0.238532
-0.238531
-0.238529
-0.238525
-0.23852
-0.238515
-0.238509
-0.238503
-0.238496
-0.23849
-0.238485
-0.238481
-0.238479
-0.238478
-0.23848
-0.238485
-0.238493
-0.262279
-0.262274
-0.262271
-0.26227
-0.262271
-0.262274
-0.262277
-0.262281
-0.262285
-0.262289
-0.262292
-0.262294
-0.262295
-0.262295
-0.262294
-0.262291
-0.262287
-0.262281
-0.262275
-0.262267
-0.26226
-0.262252
-0.262245
-0.262239
-0.262234
-0.262231
-0.26223
-0.262232
-0.262238
-0.262247
-0.287
-0.286993
-0.28699
-0.286989
-0.286991
-0.286994
-0.286998
-0.287003
-0.287007
-0.287012
-0.287015
-0.287018
-0.287019
-0.287019
-0.287017
-0.287014
-0.287009
-0.287003
-0.286995
-0.286987
-0.286978
-0.286969
-0.28696
-0.286953
-0.286947
-0.286943
-0.286942
-0.286944
-0.28695
-0.286961
-0.31266
-0.312653
-0.31265
-0.312649
-0.312651
-0.312655
-0.312659
-0.312665
-0.31267
-0.312675
-0.312679
-0.312683
-0.312684
-0.312684
-0.312682
-0.312678
-0.312672
-0.312665
-0.312656
-0.312647
-0.312637
-0.312626
-0.312617
-0.312608
-0.312601
-0.312596
-0.312595
-0.312597
-0.312603
-0.312615
-0.339242
-0.339234
-0.339231
-0.339231
-0.339233
-0.339237
-0.339243
-0.339249
-0.339255
-0.339261
-0.339266
-0.33927
-0.339271
-0.339271
-0.339269
-0.339265
-0.339258
-0.33925
-0.33924
-0.339229
-0.339218
-0.339206
-0.339195
-0.339185
-0.339177
-0.339172
-0.339169
-0.339171
-0.339177
-0.33919
-0.366728
-0.36672
-0.366717
-0.366718
-0.366721
-0.366726
-0.366732
-0.366739
-0.366746
-0.366753
-0.366759
-0.366763
-0.366765
-0.366765
-0.366763
-0.366758
-0.366751
-0.366742
-0.366731
-0.366718
-0.366705
-0.366692
-0.36668
-0.366668
-0.366659
-0.366652
-0.366649
-0.36665
-0.366657
-0.366669
-0.395104
-0.395097
-0.395094
-0.395095
-0.395099
-0.395105
-0.395112
-0.39512
-0.395129
-0.395137
-0.395143
-0.395148
-0.395151
-0.395151
-0.395148
-0.395143
-0.395135
-0.395125
-0.395113
-0.395099
-0.395084
-0.39507
-0.395055
-0.395042
-0.395032
-0.395024
-0.39502
-0.39502
-0.395026
-0.395037
-0.424358
-0.424351
-0.424349
-0.424351
-0.424355
-0.424362
-0.424371
-0.424381
-0.42439
-0.424399
-0.424407
-0.424413
-0.424416
-0.424417
-0.424414
-0.424408
-0.4244
-0.424388
-0.424375
-0.424359
-0.424343
-0.424326
-0.42431
-0.424296
-0.424283
-0.424274
-0.424269
-0.424268
-0.424273
-0.424283
-0.454479
-0.454474
-0.454472
-0.454475
-0.45448
-0.454489
-0.454499
-0.45451
-0.454521
-0.454532
-0.454541
-0.454548
-0.454552
-0.454553
-0.45455
-0.454544
-0.454535
-0.454522
-0.454507
-0.454489
-0.454471
-0.454452
-0.454434
-0.454417
-0.454404
-0.454393
-0.454387
-0.454385
-0.454389
-0.454397
-0.485461
-0.485457
-0.485456
-0.485459
-0.485465
-0.485475
-0.485487
-0.4855
-0.485514
-0.485526
-0.485537
-0.485546
-0.485551
-0.485552
-0.48555
-0.485543
-0.485533
-0.485518
-0.485501
-0.485482
-0.485461
-0.485439
-0.485419
-0.4854
-0.485384
-0.485372
-0.485365
-0.485363
-0.485366
-0.485372
-0.517301
-0.517297
-0.517296
-0.517299
-0.517307
-0.517318
-0.517332
-0.517348
-0.517364
-0.517379
-0.517393
-0.517403
-0.51741
-0.517412
-0.517409
-0.517402
-0.517391
-0.517375
-0.517355
-0.517333
-0.517309
-0.517284
-0.51726
-0.517239
-0.517221
-0.517207
-0.517199
-0.517198
-0.517201
-0.517208
)
;

boundaryField
{
    floor
    {
        type            calculated;
        value           nonuniform List<scalar> 
30
(
0.000330925
0.000327204
0.000326427
0.000330475
0.000339355
0.00035245
0.000368684
0.000386776
0.000405363
0.00042308
0.000438652
0.000450948
0.000459038
0.000462234
0.000460115
0.000452555
0.000439727
0.000422099
0.000400421
0.000375691
0.000349121
0.000322079
0.000296028
0.000272454
0.000252789
0.000238292
0.000229877
0.000227819
0.000231345
0.000238068
)
;
    }
    ceiling
    {
        type            calculated;
        value           nonuniform List<scalar> 
30
(
-0.533441
-0.533437
-0.533436
-0.533439
-0.533447
-0.533459
-0.533473
-0.533489
-0.533505
-0.533521
-0.533534
-0.533544
-0.533551
-0.533553
-0.533551
-0.533544
-0.533532
-0.533516
-0.533496
-0.533474
-0.53345
-0.533425
-0.533401
-0.533379
-0.533361
-0.533347
-0.53334
-0.533338
-0.533341
-0.533348
)
;
    }
    fixedWalls
    {
        type            calculated;
        value           nonuniform List<scalar> 
60
(
0
-0.00131789
-0.00396023
-0.00792303
-0.0131992
-0.0197788
-0.027649
-0.0367949
-0.0471995
-0.0588441
-0.0717082
-0.0857702
-0.101007
-0.117395
-0.13491
-0.153527
-0.17322
-0.193967
-0.215741
-0.238519
-0.262279
-0.287
-0.31266
-0.339242
-0.366728
-0.395104
-0.424358
-0.454479
-0.485461
-0.517301
-9.24406e-05
-0.00140662
-0.00404274
-0.0079983
-0.0132669
-0.0198389
-0.0277017
-0.0368406
-0.0472384
-0.0588765
-0.0717344
-0.0857903
-0.101021
-0.117403
-0.134913
-0.153524
-0.173212
-0.193952
-0.215721
-0.238493
-0.262247
-0.286961
-0.312615
-0.33919
-0.366669
-0.395037
-0.424283
-0.454397
-0.485372
-0.517208
)
;
    }
    frontAndBack
    {
        type            empty;
    }
}


// ************************************************************************* //
