/*--------------------------------*- C++ -*----------------------------------*\
| =========                 |                                                 |
| \\      /  F ield         | OpenFOAM: The Open Source CFD Toolbox           |
|  \\    /   O peration     | Version:  2412                                  |
|   \\  /    A nd           | Website:  www.openfoam.com                      |
|    \\/     M anipulation  |                                                 |
\*---------------------------------------------------------------------------*/
FoamFile
{
    version     2.0;
    format      ascii;
    arch        "LSB;label=32;scalar=64";
    class       volScalarField;
    location    "800";
    object      p_rgh;
}
// * * * * * * * * * * * * * * * * * * * * * * * * * * * * * * * * * * * * * //

dimensions      [0 2 -2 0 0 0 0];

internalField   nonuniform List<scalar> 
900
(
0.000330925
0.000327204
0.000326427
0.000330475
0.000339355
0.00035245
0.000368684
0.000386776
0.000405363
0.00042308
0.000438652
0.000450948
0.000459038
0.000462234
0.000460115
0.000452555
0.000439727
0.000422099
0.000400421
0.000375691
0.000349121
0.000322079
0.000296028
0.000272454
0.000252789
0.000238292
0.000229877
0.000227819
0.000231345
0.000238068
0.00165806
0.00165491
0.00165545
0.00166039
0.00166935
0.00168176
0.0016967
0.00171308
0.00172975
0.00174553
0.00175929
0.00177005
0.00177697
0.00177947
0.00177716
0.00176995
0.001758
0.00174172
0.00172179
0.00169912
0.00167477
0.00164995
0.00162594
0.00160402
0.00158538
0.00157109
0.00156191
0.00155815
0.00155969
0.0015655
0.00429542
0.00429371
0.00429605
0.00430271
0.00431294
0.00432612
0.0043414
0.00435779
0.00437424
0.00438966
0.004403
0.00441336
0.00441995
0.00442223
0.00441984
0.00441269
0.00440094
0.00438499
0.00436548
0.00434326
0.00431933
0.00429484
0.00427095
0.00424881
0.00422954
0.00421408
0.00420322
0.00419736
0.00419703
0.00420207
0.00822664
0.0082276
0.00823268
0.00824208
0.00825479
0.00827018
0.00828735
0.00830535
0.00832315
0.00833967
0.00835389
0.00836489
0.00837191
0.0083744
0.00837202
0.00836467
0.00835251
0.00833594
0.00831561
0.00829236
0.0082672
0.00824126
0.00821567
0.00819158
0.00817004
0.00815204
0.00813839
0.00812964
0.00812673
0.00812984
0.0134287
0.0134339
0.013443
0.0134563
0.0134727
0.0134916
0.013512
0.0135329
0.0135534
0.0135722
0.0135884
0.0136009
0.013609
0.013612
0.0136097
0.0136019
0.0135888
0.0135708
0.0135486
0.0135231
0.0134953
0.0134664
0.0134376
0.0134101
0.0133848
0.013363
0.0133453
0.0133325
0.0133257
0.0133252
0.0198723
0.0198833
0.0198976
0.0199159
0.0199372
0.0199607
0.0199856
0.0200107
0.020035
0.0200572
0.0200762
0.020091
0.0201006
0.0201046
0.0201024
0.0200939
0.0200794
0.0200593
0.0200344
0.0200055
0.0199738
0.0199406
0.0199072
0.0198748
0.0198445
0.0198175
0.0197947
0.0197767
0.0197646
0.0197587
0.0275224
0.0275403
0.0275609
0.0275853
0.0276125
0.0276418
0.0276721
0.0277024
0.0277315
0.027758
0.0277806
0.0277982
0.0278099
0.0278149
0.0278129
0.0278036
0.0277873
0.0277645
0.027736
0.0277028
0.0276662
0.0276276
0.0275884
0.02755
0.0275135
0.0274802
0.0274511
0.0274268
0.0274082
0.0273954
0.0363384
0.0363643
0.0363921
0.0364234
0.0364573
0.0364931
0.0365297
0.0365661
0.0366007
0.0366321
0.0366589
0.0366799
0.036694
0.0367003
0.0366984
0.0366882
0.0366698
0.0366439
0.0366112
0.036573
0.0365306
0.0364857
0.0364398
0.0363943
0.0363507
0.0363102
0.0362738
0.0362421
0.036216
0.036195
0.0462749
0.0463095
0.0463452
0.046384
0.0464252
0.0464682
0.0465118
0.0465547
0.0465954
0.0466323
0.0466638
0.0466884
0.0467051
0.0467128
0.0467112
0.0466999
0.0466792
0.0466497
0.0466124
0.0465687
0.04652
0.0464681
0.0464147
0.0463615
0.04631
0.0462615
0.0462172
0.0461774
0.0461428
0.0461127
0.0572826
0.0573264
0.0573704
0.0574172
0.0574662
0.0575167
0.0575676
0.0576175
0.0576645
0.0577071
0.0577435
0.057772
0.0577914
0.0578006
0.0577991
0.0577867
0.0577636
0.0577304
0.0576884
0.0576388
0.0575834
0.0575242
0.057463
0.0574016
0.0573417
0.0572847
0.0572318
0.0571834
0.0571398
0.0571
0.0693093
0.0693625
0.069415
0.0694699
0.0695268
0.0695851
0.0696434
0.0697003
0.0697538
0.0698021
0.0698434
0.0698758
0.0698979
0.0699087
0.0699074
0.0698939
0.0698683
0.0698315
0.0697845
0.0697291
0.0696669
0.0696002
0.069531
0.0694612
0.0693928
0.0693272
0.0692655
0.0692082
0.0691551
0.0691051
0.0823006
0.0823632
0.0824242
0.0824871
0.0825519
0.0826177
0.0826834
0.0827471
0.0828069
0.0828609
0.0829069
0.0829431
0.0829679
0.0829801
0.082979
0.0829644
0.0829365
0.082896
0.0828444
0.0827832
0.0827145
0.0826405
0.0825634
0.0824854
0.0824085
0.0823343
0.0822639
0.0821975
0.082135
0.0820747
0.0962012
0.0962729
0.0963421
0.0964129
0.0964851
0.0965582
0.0966308
0.096701
0.0967668
0.096826
0.0968764
0.0969161
0.0969434
0.096957
0.0969561
0.0969405
0.0969104
0.0968667
0.0968107
0.0967442
0.0966693
0.0965884
0.0965039
0.0964181
0.0963331
0.0962506
0.0961717
0.0960966
0.0960247
0.0959542
0.110956
0.111036
0.111113
0.111191
0.111271
0.11135
0.111429
0.111505
0.111576
0.11164
0.111695
0.111738
0.111767
0.111782
0.111781
0.111765
0.111733
0.111686
0.111626
0.111555
0.111475
0.111388
0.111296
0.111203
0.111111
0.111021
0.110934
0.11085
0.11077
0.11069
0.126511
0.126599
0.126683
0.126768
0.126853
0.126939
0.127023
0.127104
0.12718
0.127248
0.127306
0.127351
0.127383
0.127399
0.127398
0.127381
0.127347
0.127298
0.127235
0.12716
0.127075
0.126983
0.126886
0.126787
0.126688
0.126591
0.126497
0.126406
0.126317
0.126227
0.142815
0.14291
0.143
0.14309
0.143181
0.143272
0.14336
0.143446
0.143525
0.143596
0.143656
0.143704
0.143737
0.143753
0.143753
0.143736
0.143701
0.14365
0.143585
0.143507
0.143418
0.143322
0.14322
0.143116
0.143012
0.142909
0.142809
0.142711
0.142615
0.142517
0.15982
0.159921
0.160016
0.16011
0.160205
0.160299
0.160391
0.16048
0.160561
0.160635
0.160697
0.160746
0.160779
0.160797
0.160797
0.160779
0.160744
0.160692
0.160625
0.160545
0.160454
0.160355
0.160251
0.160143
0.160034
0.159927
0.159822
0.159719
0.159616
0.159512
0.177482
0.177587
0.177686
0.177784
0.177881
0.177978
0.178072
0.178162
0.178245
0.178319
0.178382
0.178431
0.178466
0.178483
0.178483
0.178466
0.178431
0.178379
0.178311
0.178231
0.178139
0.178039
0.177932
0.177823
0.177712
0.177601
0.177493
0.177386
0.177278
0.177168
0.195763
0.195872
0.195973
0.196072
0.196171
0.196268
0.196363
0.196453
0.196536
0.19661
0.196673
0.196722
0.196756
0.196774
0.196774
0.196757
0.196722
0.196671
0.196605
0.196525
0.196434
0.196333
0.196227
0.196117
0.196005
0.195894
0.195783
0.195674
0.195563
0.195449
0.214633
0.214742
0.214844
0.214944
0.215042
0.215139
0.215232
0.215321
0.215402
0.215475
0.215536
0.215585
0.215618
0.215636
0.215636
0.21562
0.215586
0.215537
0.215472
0.215394
0.215305
0.215207
0.215103
0.214994
0.214884
0.214773
0.214662
0.214552
0.214439
0.214322
0.234066
0.234175
0.234275
0.234374
0.23447
0.234564
0.234655
0.234741
0.23482
0.234889
0.234949
0.234995
0.235027
0.235044
0.235045
0.23503
0.234998
0.234951
0.234889
0.234815
0.234729
0.234635
0.234534
0.234429
0.234322
0.234213
0.234105
0.233995
0.233883
0.233766
0.254047
0.254153
0.254251
0.254346
0.254438
0.254528
0.254615
0.254696
0.254771
0.254837
0.254892
0.254936
0.254966
0.254983
0.254984
0.254969
0.25494
0.254896
0.254839
0.254769
0.254689
0.254601
0.254506
0.254406
0.254304
0.2542
0.254095
0.253988
0.253879
0.253763
0.274568
0.27467
0.274763
0.274852
0.274939
0.275024
0.275104
0.275179
0.275248
0.275309
0.27536
0.2754
0.275428
0.275443
0.275444
0.275432
0.275405
0.275366
0.275314
0.275251
0.275178
0.275097
0.275009
0.274917
0.274821
0.274724
0.274625
0.274524
0.274419
0.274307
0.295631
0.295726
0.295813
0.295895
0.295975
0.296052
0.296124
0.296192
0.296254
0.296308
0.296353
0.296389
0.296414
0.296427
0.296429
0.296418
0.296395
0.296361
0.296316
0.29626
0.296196
0.296124
0.296045
0.295963
0.295876
0.295788
0.295697
0.295603
0.295505
0.295399
0.317248
0.317334
0.317412
0.317486
0.317557
0.317624
0.317687
0.317746
0.317799
0.317845
0.317884
0.317914
0.317936
0.317948
0.317949
0.317941
0.317922
0.317893
0.317856
0.317809
0.317755
0.317694
0.317627
0.317555
0.31748
0.317402
0.317321
0.317237
0.317148
0.317051
0.33944
0.339515
0.339583
0.339645
0.339705
0.339761
0.339813
0.339861
0.339904
0.339942
0.339973
0.339998
0.340015
0.340025
0.340027
0.340021
0.340007
0.339985
0.339955
0.339919
0.339876
0.339827
0.339774
0.339715
0.339653
0.339588
0.33952
0.339447
0.339369
0.339284
0.362238
0.362299
0.362354
0.362405
0.362452
0.362495
0.362535
0.362571
0.362603
0.36263
0.362653
0.362671
0.362684
0.362691
0.362693
0.36269
0.362681
0.362666
0.362646
0.362621
0.362592
0.362557
0.362518
0.362474
0.362428
0.362377
0.362323
0.362264
0.3622
0.362129
0.385682
0.385728
0.385769
0.385805
0.385838
0.385867
0.385893
0.385916
0.385935
0.385951
0.385965
0.385975
0.385983
0.385988
0.38599
0.385989
0.385986
0.38598
0.38597
0.385958
0.385942
0.385923
0.3859
0.385873
0.385843
0.385809
0.385771
0.385728
0.38568
0.385625
0.409822
0.409851
0.409877
0.409898
0.409915
0.409929
0.409939
0.409947
0.409952
0.409956
0.409959
0.409962
0.409964
0.409966
0.409968
0.409971
0.409973
0.409976
0.409978
0.409979
0.409978
0.409976
0.409971
0.409964
0.409952
0.409936
0.409915
0.409889
0.409858
0.409822
0.434714
0.434727
0.434736
0.434741
0.434742
0.434738
0.434732
0.434723
0.434714
0.434704
0.434696
0.434689
0.434685
0.434684
0.434686
0.434692
0.434701
0.434713
0.434727
0.434743
0.43476
0.434777
0.434792
0.434804
0.434813
0.434816
0.434814
0.434806
0.434793
0.434776
)
;

boundaryField
{
    floor
    {
        type            fixedFluxPressure;
        gradient        uniform 0;
        value           nonuniform List<scalar> 
30
(
0.000330925
0.000327204
0.000326427
0.000330475
0.000339355
0.00035245
0.000368684
0.000386776
0.000405363
0.00042308
0.000438652
0.000450948
0.000459038
0.000462234
0.000460115
0.000452555
0.000439727
0.000422099
0.000400421
0.000375691
0.000349121
0.000322079
0.000296028
0.000272454
0.000252789
0.000238292
0.000229877
0.000227819
0.000231345
0.000238068
)
;
    }
    ceiling
    {
        type            fixedFluxPressure;
        gradient        nonuniform List<scalar> 
30
(
7.70951
7.70435
7.6992
7.69409
7.68904
7.68412
7.6794
7.67499
7.67099
7.6675
7.6646
7.66235
7.66082
7.66008
7.66013
7.66101
7.6627
7.66517
7.66836
7.67223
7.67668
7.68165
7.687
7.69263
7.69842
7.70428
7.71018
7.71611
7.72217
7.72859
)
;
        value           nonuniform List<scalar> 
30
(
0.447559
0.447563
0.447564
0.447561
0.447553
0.447541
0.447527
0.447511
0.447495
0.447479
0.447466
0.447456
0.447449
0.447447
0.447449
0.447456
0.447468
0.447484
0.447504
0.447526
0.44755
0.447575
0.447599
0.447621
0.447639
0.447653
0.44766
0.447662
0.447659
0.447652
)
;
    }
    fixedWalls
    {
        type            fixedFluxPressure;
        gradient        uniform 0;
        value           nonuniform List<scalar> 
60
(
0.000330925
0.00165806
0.00429542
0.00822664
0.0134287
0.0198723
0.0275224
0.0363384
0.0462749
0.0572826
0.0693093
0.0823006
0.0962012
0.110956
0.126511
0.142815
0.15982
0.177482
0.195763
0.214633
0.234066
0.254047
0.274568
0.295631
0.317248
0.33944
0.362238
0.385682
0.409822
0.434714
0.000238068
0.0015655
0.00420207
0.00812984
0.0133252
0.0197587
0.0273954
0.036195
0.0461127
0.0571
0.0691051
0.0820747
0.0959542
0.11069
0.126227
0.142517
0.159512
0.177168
0.195449
0.214322
0.233766
0.253763
0.274307
0.295399
0.317051
0.339284
0.362129
0.385625
0.409822
0.434776
)
;
    }
    frontAndBack
    {
        type            empty;
    }
}


// ************************************************************************* //
