/*--------------------------------*- C++ -*----------------------------------*\
| =========                 |                                                 |
| \\      /  F ield         | OpenFOAM: The Open Source CFD Toolbox           |
|  \\    /   O peration     | Version:  2412                                  |
|   \\  /    A nd           | Website:  www.openfoam.com                      |
|    \\/     M anipulation  |                                                 |
\*---------------------------------------------------------------------------*/
FoamFile
{
    version     2.0;
    format      ascii;
    arch        "LSB;label=32;scalar=64";
    class       surfaceScalarField;
    location    "800";
    object      phi;
}
// * * * * * * * * * * * * * * * * * * * * * * * * * * * * * * * * * * * * * //

dimensions      [0 3 -1 0 0 0 0];

oriented        oriented;

internalField   nonuniform List<scalar> 
1740
(
-1.2426e-09
1.07357e-09
-4.99797e-09
3.75635e-09
-1.03537e-08
5.3568e-09
-1.61089e-08
5.75647e-09
-2.13048e-08
5.19688e-09
-2.5242e-08
3.93788e-09
-2.74564e-08
2.21475e-09
-2.76847e-08
2.28007e-10
-2.58351e-08
-1.85019e-09
-2.19675e-08
-3.86859e-09
-1.62729e-08
-5.69592e-09
-9.0532e-09
-7.22116e-09
-6.99979e-10
-8.35479e-09
8.32899e-09
-9.03055e-09
1.75335e-08
-9.20601e-09
2.63963e-08
-8.86428e-09
3.44102e-08
-8.01522e-09
4.11039e-08
-6.69495e-09
4.60682e-08
-4.96527e-09
4.89799e-08
-2.91251e-09
4.96252e-08
-6.46003e-10
4.79212e-08
1.70369e-09
4.39342e-08
3.98691e-09
3.7903e-08
6.03144e-09
3.02663e-08
7.63731e-09
2.16959e-08
8.57141e-09
1.31318e-08
8.56568e-09
5.78978e-09
7.34415e-09
1.08225e-09
4.7103e-09
1.08531e-09
-4.03556e-09
5.11002e-09
-1.34624e-08
1.31872e-08
-2.58463e-08
1.77441e-08
-3.88433e-08
1.87569e-08
-5.04766e-08
1.68327e-08
-5.92186e-08
1.26813e-08
-6.39968e-08
6.99361e-09
-6.41691e-08
4.00004e-10
-5.94883e-08
-6.53196e-09
-5.00673e-08
-1.32912e-08
-3.63376e-08
-1.94276e-08
-1.90036e-08
-2.45573e-08
1.00906e-09
-2.83697e-08
2.26096e-08
-3.06332e-08
4.46019e-08
-3.12004e-08
6.57496e-08
-3.00137e-08
8.48407e-08
-2.71077e-08
1.00753e-07
-2.26085e-08
1.12519e-07
-1.67316e-08
1.19384e-07
-9.77723e-09
1.20863e-07
-2.12456e-09
1.16792e-07
5.77583e-09
1.0737e-07
1.34102e-08
9.32052e-08
2.01992e-08
7.53521e-08
2.54941e-08
5.53501e-08
2.85781e-08
3.52355e-08
2.86856e-08
1.74967e-08
2.50885e-08
4.90043e-09
1.73122e-08
5.9882e-09
-6.02305e-09
1.11342e-08
-1.92839e-08
2.64511e-08
-3.61546e-08
3.46178e-08
-5.35966e-08
3.62012e-08
-6.90753e-08
3.23129e-08
-8.05988e-08
2.42054e-08
-8.67341e-08
1.31288e-08
-8.6601e-08
2.6592e-10
-7.98463e-08
-1.32882e-08
-6.66081e-08
-2.65316e-08
-4.74658e-08
-3.85724e-08
-2.33802e-08
-4.86456e-08
4.37646e-09
-5.6129e-08
3.42983e-08
-6.05576e-08
6.47312e-08
-6.16357e-08
9.39643e-08
-5.9249e-08
1.20322e-07
-5.34672e-08
1.42256e-07
-4.45441e-08
1.58436e-07
-3.29122e-08
1.67832e-07
-1.91733e-08
1.69793e-07
-4.08547e-09
1.64116e-07
1.14543e-08
1.51099e-07
2.64286e-08
1.31594e-07
3.97061e-08
1.07042e-07
5.00491e-08
7.94906e-08
5.61326e-08
5.15875e-08
5.65932e-08
2.65247e-08
5.01563e-08
7.94737e-09
3.58943e-08
1.39372e-08
-7.08439e-09
1.82205e-08
-2.25222e-08
4.1893e-08
-4.19517e-08
5.40507e-08
-6.18741e-08
5.61262e-08
-7.94316e-08
4.98723e-08
-9.23831e-08
3.71578e-08
-9.91047e-08
1.98507e-08
-9.85887e-08
-2.50787e-10
-9.04244e-08
-2.14538e-08
-7.47648e-08
-4.2193e-08
-5.22754e-08
-6.1064e-08
-2.40673e-08
-7.6856e-08
8.38227e-09
-8.85808e-08
4.33204e-08
-9.54978e-08
7.88195e-08
-9.71367e-08
1.12885e-07
-9.33161e-08
1.43565e-07
-8.41478e-08
1.69057e-07
-7.00364e-08
1.87815e-07
-5.16707e-08
1.9865e-07
-3.00076e-08
2.00815e-07
-6.24919e-09
1.94085e-07
1.81862e-08
1.78818e-07
4.16979e-08
1.56003e-07
6.25236e-08
1.27291e-07
7.87637e-08
9.50059e-08
8.84208e-08
6.21333e-08
8.9469e-08
3.23076e-08
7.99855e-08
9.83491e-09
5.83702e-08
2.37726e-08
-7.44757e-09
2.567e-08
-2.37378e-08
5.81867e-08
-4.42043e-08
7.45198e-08
-6.51157e-08
7.70396e-08
-8.34582e-08
6.82161e-08
-9.68811e-08
5.05812e-08
-1.03682e-07
2.66511e-08
-1.02801e-07
-1.13275e-09
-9.38064e-08
-3.04504e-08
-7.68598e-08
-5.91417e-08
-5.26677e-08
-8.52586e-08
-2.24118e-08
-1.07114e-07
1.2334e-08
-1.23329e-07
4.96997e-08
-1.32866e-07
8.76276e-08
-1.35067e-07
1.23988e-07
-1.29679e-07
1.56697e-07
-1.16858e-07
1.83833e-07
-9.71724e-08
2.03747e-07
-7.15855e-08
2.15175e-07
-4.14351e-08
2.17325e-07
-8.39858e-09
2.09962e-07
2.55503e-08
1.93469e-07
5.81921e-08
1.68896e-07
8.70988e-08
1.37984e-07
1.09677e-07
1.03182e-07
1.23225e-07
6.76441e-08
1.25008e-07
3.52605e-08
1.12371e-07
1.07474e-08
8.28844e-08
3.45194e-08
-7.32597e-09
3.29979e-08
-2.34779e-08
7.43415e-08
-4.38135e-08
9.48576e-08
-6.45752e-08
9.78028e-08
-8.27335e-08
8.63753e-08
-9.59329e-08
6.37805e-08
-1.02471e-07
3.31886e-08
-1.0129e-07
-2.31493e-09
-9.19606e-08
-3.97822e-08
-7.46473e-08
-7.64572e-08
-5.00626e-08
-1.09846e-07
-1.93975e-08
-1.37782e-07
1.57609e-08
-1.5849e-07
5.3526e-08
-1.70633e-07
9.1822e-08
-1.73365e-07
1.285e-07
-1.66358e-07
1.61455e-07
-1.49815e-07
1.88749e-07
-1.24467e-07
2.0872e-07
-9.15571e-08
2.20092e-07
-5.28074e-08
2.22069e-07
-1.03749e-08
2.14413e-07
3.32071e-08
1.97509e-07
7.50963e-08
1.72412e-07
1.12196e-07
1.40873e-07
1.41217e-07
1.05357e-07
1.58742e-07
6.90603e-08
1.61304e-07
3.59591e-08
1.45471e-07
1.09204e-08
1.07922e-07
4.54386e-08
-6.88353e-09
3.98829e-08
-2.21882e-08
8.9648e-08
-4.15231e-08
1.14194e-07
-6.12752e-08
1.17556e-07
-7.85197e-08
1.0362e-07
-9.09827e-08
7.62429e-08
-9.70238e-08
3.92284e-08
-9.56255e-08
-3.71492e-09
-8.63765e-08
-4.90332e-08
-6.94398e-08
-9.33961e-08
-4.55054e-08
-1.33783e-07
-1.57256e-08
-1.67564e-07
1.83645e-08
-1.92582e-07
5.49405e-08
-2.07211e-07
9.19946e-08
-2.10421e-07
1.27448e-07
-2.01812e-07
1.59265e-07
-1.81633e-07
1.8557e-07
-1.50772e-07
2.04754e-07
-1.10742e-07
2.15583e-07
-6.36367e-08
2.17285e-07
-1.20767e-08
2.09628e-07
4.08636e-08
1.92985e-07
9.17389e-08
1.68376e-07
1.36805e-07
1.375e-07
1.72093e-07
1.02755e-07
1.93486e-07
6.72673e-08
1.96791e-07
3.494e-08
1.77797e-07
1.05581e-08
1.32302e-07
5.59958e-08
-6.23403e-09
4.61181e-08
-2.02e-08
1.03615e-07
-3.79063e-08
1.31901e-07
-5.60148e-08
1.35664e-07
-7.18043e-08
1.19409e-07
-8.31553e-08
8.7593e-08
-8.8539e-08
4.46108e-08
-8.7009e-08
-5.24637e-09
-7.81848e-08
-5.7859e-08
-6.22211e-08
-1.09361e-07
-3.97633e-08
-1.56242e-07
-1.18872e-08
-1.95441e-07
1.99752e-08
-2.24446e-07
5.41224e-08
-2.41359e-07
8.86826e-08
-2.44981e-07
1.21717e-07
-2.34847e-07
1.51327e-07
-2.11243e-07
1.75761e-07
-1.75206e-07
1.93519e-07
-1.285e-07
2.03447e-07
-7.35645e-08
2.04823e-07
-1.34524e-08
1.9743e-07
4.8257e-08
1.81615e-07
1.07554e-07
1.58334e-07
1.60085e-07
1.29185e-07
2.01242e-07
9.64265e-08
2.26243e-07
6.3014e-08
2.30203e-07
3.26398e-08
2.0817e-07
9.81388e-09
1.55127e-07
6.58102e-08
-5.45415e-09
5.15727e-08
-1.77511e-08
1.15912e-07
-3.33905e-08
1.4754e-07
-4.94021e-08
1.51675e-07
-6.33465e-08
1.33353e-07
-7.33174e-08
9.7563e-08
-7.79388e-08
4.92313e-08
-7.63604e-08
-6.8258e-09
-6.82418e-08
-6.59786e-08
-5.37248e-08
-1.23879e-07
-3.33925e-08
-1.76575e-07
-8.21447e-09
-2.2062e-07
2.052e-08
-2.5318e-07
5.128e-08
-2.72118e-07
8.23814e-08
-2.76081e-07
1.1208e-07
-2.64544e-07
1.38666e-07
-2.37827e-07
1.60564e-07
-1.97102e-07
1.76421e-07
-1.44355e-07
1.85196e-07
-8.23376e-08
1.86236e-07
-1.44913e-08
1.79344e-07
5.51489e-08
1.64837e-07
1.22062e-07
1.43581e-07
1.81342e-07
1.17027e-07
2.27796e-07
8.7237e-08
2.56033e-07
5.69053e-08
2.60535e-07
2.93969e-08
2.35679e-07
8.79952e-09
1.75726e-07
7.46117e-08
-4.595e-09
5.61679e-08
-1.50094e-08
1.26326e-07
-2.82881e-08
1.60819e-07
-4.18925e-08
1.65279e-07
-5.37225e-08
1.45183e-07
-6.21312e-08
1.05971e-07
-6.59284e-08
5.30281e-08
-6.43798e-08
-8.37486e-09
-5.71932e-08
-7.31654e-08
-4.4494e-08
-1.36578e-07
-2.6789e-08
-1.94279e-07
-4.91898e-09
-2.42489e-07
1.99999e-08
-2.78097e-07
4.66435e-08
-2.9876e-07
7.35554e-08
-3.02992e-07
9.92267e-08
-2.90213e-07
1.22179e-07
-2.60777e-07
1.41047e-07
-2.15967e-07
1.54658e-07
-1.57963e-07
1.6211e-07
-8.97866e-08
1.62835e-07
-1.52136e-08
1.5666e-07
6.13247e-08
1.43862e-07
1.34862e-07
1.25198e-07
2.00008e-07
1.01939e-07
2.51056e-07
7.58924e-08
2.82082e-07
4.94213e-08
2.87008e-07
2.54703e-08
2.59633e-07
7.5954e-09
1.93604e-07
8.22092e-08
-3.69102e-09
5.9859e-08
-1.20933e-08
1.34728e-07
-2.28264e-08
1.71551e-07
-3.38242e-08
1.76276e-07
-4.33663e-08
1.54724e-07
-5.0099e-08
1.12703e-07
-5.30436e-08
5.59723e-08
-5.1597e-08
-9.82167e-09
-4.55218e-08
-7.92407e-08
-3.49245e-08
-1.47175e-07
-2.02256e-08
-2.08978e-07
-2.11999e-09
-2.60594e-07
1.8472e-08
-2.98688e-07
4.04599e-08
-3.20747e-07
6.26447e-08
-3.25175e-07
8.37835e-08
-3.1135e-07
1.02658e-07
-2.7965e-07
1.18144e-07
-2.3145e-07
1.29272e-07
-1.69089e-07
1.35295e-07
-9.58078e-08
1.35744e-07
-1.56599e-08
1.30474e-07
6.65965e-08
1.19713e-07
1.45625e-07
1.04092e-07
2.1563e-07
8.46733e-08
2.70477e-07
6.29653e-08
3.03792e-07
4.09422e-08
3.09034e-07
2.10578e-08
2.7952e-07
6.25989e-09
2.08405e-07
8.84696e-08
-2.7658e-09
6.26247e-08
-9.08682e-09
1.41048e-07
-1.71708e-08
1.79635e-07
-2.54477e-08
1.84552e-07
-3.26031e-08
1.61879e-07
-3.75999e-08
1.17699e-07
-3.96887e-08
5.80603e-08
-3.84095e-08
-1.11016e-08
-3.3584e-08
-8.40667e-08
-2.52986e-08
-1.55461e-07
-1.38801e-08
-2.20396e-07
1.34551e-10
-2.74609e-07
1.60367e-08
-3.1459e-07
3.29888e-08
-3.37698e-07
5.007e-08
-3.42256e-07
6.63256e-08
-3.27606e-07
8.08192e-08
-2.94144e-07
9.26846e-08
-2.43316e-07
1.01176e-07
-1.7758e-07
1.05715e-07
-1.00346e-07
1.05936e-07
-1.58804e-08
1.01726e-07
7.0807e-08
9.32591e-08
1.54091e-07
8.10267e-08
2.27863e-07
6.58551e-08
2.8565e-07
4.89229e-08
3.20726e-07
3.17714e-08
3.26187e-07
1.63131e-08
2.9498e-07
4.83618e-09
2.19883e-07
9.33043e-08
-1.83574e-09
6.44601e-08
-6.05004e-09
1.4526e-07
-1.14417e-08
1.85026e-07
-1.69483e-08
1.90057e-07
-2.16757e-08
1.66605e-07
-2.49182e-08
1.2094e-07
-2.61667e-08
5.93075e-08
-2.51119e-08
-1.21578e-08
-2.1638e-08
-8.75419e-08
-1.581e-08
-1.6129e-07
-7.85625e-09
-2.28351e-07
1.85196e-09
-2.84318e-07
1.28279e-08
-3.25568e-07
2.44994e-08
-3.49371e-07
3.62371e-08
-3.53994e-07
4.73883e-08
-3.38758e-07
5.73124e-08
-3.0407e-07
6.54152e-08
-2.51421e-07
7.11836e-08
-1.83351e-07
7.42176e-08
-1.03382e-07
7.42614e-08
-1.59252e-08
7.12328e-08
7.38349e-08
6.52493e-08
1.60074e-07
5.66497e-08
2.36462e-07
4.60091e-08
2.96291e-07
3.41511e-08
3.32584e-07
2.21545e-08
3.38184e-07
1.13576e-08
3.05776e-07
3.35755e-09
2.27881e-07
9.66601e-08
-9.12529e-10
6.53722e-08
-3.02655e-09
1.47372e-07
-5.72756e-09
1.87725e-07
-8.46314e-09
1.92791e-07
-1.07654e-08
1.68905e-07
-1.22661e-08
1.22439e-07
-1.27025e-08
5.97425e-08
-1.19194e-08
-1.29421e-08
-9.86534e-09
-8.95973e-08
-6.58321e-09
-1.64573e-07
-2.20011e-09
-2.32734e-07
3.08262e-09
-2.89601e-07
9.00573e-09
-3.31492e-07
1.5268e-08
-3.55633e-07
2.1539e-08
-3.60265e-07
2.74754e-08
-3.44694e-07
3.27391e-08
-3.09334e-07
3.70153e-08
-2.55698e-07
4.00292e-08
-1.86366e-07
4.15635e-08
-1.04917e-07
4.14753e-08
-1.58374e-08
3.97133e-08
7.55969e-08
3.6335e-08
1.63453e-07
3.15203e-08
2.41278e-07
2.55822e-08
3.02229e-07
1.89744e-08
3.39192e-07
1.22955e-08
3.44862e-07
6.29106e-09
3.1178e-07
1.85154e-09
2.32319e-07
9.85127e-08
-4.61711e-12
6.5376e-08
-4.81338e-11
1.47413e-07
-9.36612e-11
1.87769e-07
-9.43278e-11
1.9279e-07
-7.07221e-12
1.68817e-07
1.98379e-10
1.22232e-07
5.38185e-10
5.94018e-08
1.01329e-09
-1.34174e-08
1.61094e-09
-9.01954e-08
2.3102e-09
-1.65273e-07
3.08656e-09
-2.33509e-07
3.91017e-09
-2.90424e-07
4.75008e-09
-3.32331e-07
5.57655e-09
-3.5646e-07
6.35892e-09
-3.61046e-07
7.06491e-09
-3.45398e-07
7.66073e-09
-3.09928e-07
8.11175e-09
-2.56148e-07
8.38314e-09
-1.86636e-07
8.44118e-09
-1.04973e-07
8.25632e-09
-1.56505e-08
7.80828e-09
7.60473e-08
7.09307e-09
1.64171e-07
6.12916e-09
2.42244e-07
4.96289e-09
3.03398e-07
3.67203e-09
3.40485e-07
2.36832e-09
3.46167e-07
1.19836e-09
3.12951e-07
3.42192e-10
2.33177e-07
9.88593e-08
8.82024e-10
6.4493e-08
2.86202e-09
1.45431e-07
5.41149e-09
1.85218e-07
8.08126e-09
1.90118e-07
1.04969e-08
1.664e-07
1.23562e-08
1.20372e-07
1.34325e-08
5.8325e-08
1.35757e-08
-1.35597e-08
1.27106e-08
-8.93295e-08
1.08381e-08
-1.63401e-07
8.03533e-09
-2.30705e-07
4.44279e-09
-2.86829e-07
2.55066e-10
-3.28142e-07
-4.29031e-09
-3.51914e-07
-8.92835e-09
-3.56407e-07
-1.33844e-08
-3.40941e-07
-1.73916e-08
-3.05919e-07
-2.07078e-08
-2.52829e-07
-2.31311e-08
-1.8421e-07
-2.45135e-08
-1.03588e-07
-2.47725e-08
-1.53884e-08
-2.38977e-08
7.51758e-08
-2.19538e-08
1.6223e-07
-1.90826e-08
2.39376e-07
-1.55026e-08
2.9982e-07
-1.15094e-08
3.36494e-07
-7.4748e-09
3.42135e-07
-3.84683e-09
3.09327e-07
-1.15003e-09
2.30486e-07
9.77126e-08
1.74304e-09
6.2749e-08
5.68607e-09
1.41486e-07
1.07498e-08
1.80153e-07
1.60028e-08
1.84864e-07
2.06655e-08
1.61737e-07
2.41141e-08
1.16923e-07
2.58863e-08
5.65518e-08
2.56869e-08
-1.33596e-08
2.33822e-08
-8.70233e-08
1.89948e-08
-1.59015e-07
1.27001e-08
-2.24412e-07
4.80489e-09
-2.78933e-07
-4.27647e-09
-3.1906e-07
-1.40469e-08
-3.42144e-07
-2.39548e-08
-3.46501e-07
-3.34279e-08
-3.31469e-07
-4.19079e-08
-2.97439e-07
-4.88836e-08
-2.45853e-07
-5.39227e-08
-1.7917e-07
-5.6701e-08
-1.00809e-07
-5.70264e-08
-1.50621e-08
-5.48581e-08
7.30083e-08
-5.03191e-08
1.57692e-07
-4.37062e-08
2.32763e-07
-3.54948e-08
2.91609e-07
-2.63435e-08
3.27343e-07
-1.70954e-08
3.32889e-07
-8.77897e-09
3.01013e-07
-2.60907e-09
2.24321e-07
9.51015e-08
2.5747e-09
6.01737e-08
8.40832e-09
1.35651e-07
1.58878e-08
1.72673e-07
2.36168e-08
1.77134e-07
3.0428e-08
1.54926e-07
3.53911e-08
1.1196e-07
3.782e-08
5.41208e-08
3.72815e-08
-1.28226e-08
3.35889e-08
-8.33293e-08
2.67874e-08
-1.52214e-07
1.71458e-08
-2.14773e-07
5.12934e-09
-2.66918e-07
-8.63691e-09
-3.05295e-07
-2.34071e-08
-3.27375e-07
-3.83566e-08
-3.31553e-07
-5.263e-08
-3.17198e-07
-6.53908e-08
-2.84681e-07
-7.58714e-08
-2.35375e-07
-8.34196e-08
-1.71624e-07
-8.7542e-08
-9.66878e-08
-8.79413e-08
-1.46642e-08
-8.45462e-08
6.96117e-08
-7.7534e-08
1.50678e-07
-6.73473e-08
2.22575e-07
-5.47054e-08
2.78966e-07
-4.0612e-08
3.13249e-07
-2.63604e-08
3.18637e-07
-1.35364e-08
2.8819e-07
-4.02133e-09
2.14804e-07
9.10759e-08
3.37307e-09
5.68003e-08
1.10123e-08
1.28011e-07
2.07905e-08
1.62894e-07
3.08681e-08
1.67054e-07
3.97111e-08
1.46082e-07
4.61041e-08
1.05568e-07
4.91523e-08
5.10708e-08
4.8294e-08
-1.19675e-08
4.32941e-08
-7.8329e-08
3.42228e-08
-1.43141e-07
2.14371e-08
-2.01988e-07
5.54932e-09
-2.51033e-07
-1.26179e-08
-2.87128e-07
-3.2085e-08
-3.07907e-07
-5.17713e-08
-3.11865e-07
-7.05566e-08
-2.98411e-07
-8.73451e-08
-2.67892e-07
-1.01129e-07
-2.2159e-07
-1.11051e-07
-1.61701e-07
-1.16458e-07
-9.12804e-08
-1.16952e-07
-1.4169e-08
-1.12433e-07
6.50931e-08
-1.03125e-07
1.41372e-07
-8.96066e-08
2.09057e-07
-7.28205e-08
2.62181e-07
-5.40916e-08
2.94522e-07
-3.51333e-08
2.99682e-07
-1.80555e-08
2.71114e-07
-5.37038e-09
2.02117e-07
8.57075e-08
4.13301e-09
5.26669e-08
1.34769e-08
1.18665e-07
2.54139e-08
1.50957e-07
3.76884e-08
1.54778e-07
4.84261e-08
1.35341e-07
5.61513e-08
9.78444e-08
5.97818e-08
4.74415e-08
5.86392e-08
-1.08271e-08
5.24439e-08
-7.21351e-08
4.12921e-08
-1.31987e-07
2.56245e-08
-1.86317e-07
6.18745e-09
-2.31595e-07
-1.6017e-08
-2.64924e-07
-3.97953e-08
-2.84128e-07
-6.38326e-08
-2.87826e-07
-8.67666e-08
-2.75474e-07
-1.07265e-07
-2.4739e-07
-1.24101e-07
-2.04751e-07
-1.36227e-07
-1.49571e-07
-1.42847e-07
-8.4658e-08
-1.43468e-07
-1.35443e-08
-1.37961e-07
5.9589e-08
-1.26592e-07
1.30006e-07
-1.10057e-07
1.92525e-07
-8.95017e-08
2.4163e-07
-6.65389e-08
2.71564e-07
-4.3263e-08
2.76409e-07
-2.22625e-08
2.50115e-07
-6.63277e-09
1.86488e-07
7.90816e-08
4.84682e-09
4.78196e-08
1.5772e-08
1.07737e-07
2.96953e-08
1.37034e-07
4.39818e-08
1.40492e-07
5.64494e-08
1.2287e-07
6.53914e-08
8.89029e-08
6.95637e-08
4.32727e-08
6.81877e-08
-9.44985e-09
6.09437e-08
-6.48938e-08
4.79513e-08
-1.18996e-07
2.97285e-08
-1.68093e-07
7.14251e-09
-2.09007e-07
-1.86466e-08
-2.39135e-07
-4.62575e-08
-2.56519e-07
-7.41679e-08
-2.59917e-07
-1.00802e-07
-2.48841e-07
-1.24617e-07
-2.23575e-07
-1.44193e-07
-1.85175e-07
-1.58317e-07
-1.35448e-07
-1.66059e-07
-7.69163e-08
-1.66847e-07
-1.27577e-08
-1.60519e-07
5.3261e-08
-1.47378e-07
1.16864e-07
-1.28219e-07
1.73367e-07
-1.04362e-07
2.17774e-07
-7.76707e-08
2.44872e-07
-5.05696e-08
2.49306e-07
-2.60673e-08
2.2561e-07
-7.78175e-09
1.68205e-07
7.12985e-08
5.50174e-09
4.23178e-08
1.78502e-08
9.53858e-08
3.35394e-08
1.21345e-07
4.9604e-08
1.24431e-07
6.35979e-08
1.08874e-07
7.36168e-08
7.88812e-08
7.82822e-08
3.86079e-08
7.67369e-08
-7.90099e-09
6.86287e-08
-5.67866e-08
5.40951e-08
-1.04467e-07
3.37202e-08
-1.4772e-07
8.47578e-09
-1.83763e-07
-2.03438e-08
-2.10315e-07
-5.11995e-08
-2.25664e-07
-8.23961e-08
-2.28722e-07
-1.12178e-07
-2.19061e-07
-1.38826e-07
-1.96929e-07
-1.60758e-07
-1.63245e-07
-1.76617e-07
-1.19591e-07
-1.85365e-07
-6.817e-08
-1.86356e-07
-1.17684e-08
-1.79404e-07
4.6307e-08
-1.64834e-07
1.02293e-07
-1.43525e-07
1.52057e-07
-1.16939e-07
1.91186e-07
-8.71412e-08
2.15072e-07
-5.68282e-08
2.1899e-07
-2.93561e-08
1.98137e-07
-8.79066e-09
1.47644e-07
6.25018e-08
6.07538e-09
3.62436e-08
1.96354e-08
8.1824e-08
3.67997e-08
1.04178e-07
5.43377e-08
1.06898e-07
6.95973e-08
9.36148e-08
8.05188e-08
6.79562e-08
8.56183e-08
3.35046e-08
8.39799e-08
-6.26069e-09
7.52321e-08
-4.80356e-08
5.95264e-08
-8.87607e-08
3.74963e-08
-1.25691e-07
1.01955e-08
-1.56462e-07
-2.09763e-08
-1.79141e-07
-5.43573e-08
-1.92279e-07
-8.81193e-08
-1.94956e-07
-1.20369e-07
-1.86808e-07
-1.49251e-07
-1.68042e-07
-1.73058e-07
-1.39436e-07
-1.90322e-07
-1.02323e-07
-1.99917e-07
-5.8571e-08
-2.0114e-07
-1.05417e-08
-1.93782e-07
3.89522e-08
-1.78184e-07
8.67e-08
-1.55288e-07
1.29164e-07
-1.26658e-07
1.62558e-07
-9.45121e-08
1.82929e-07
-6.17465e-08
1.86228e-07
-3.19773e-08
1.68375e-07
-9.61879e-09
1.25287e-07
5.28874e-08
6.52914e-09
2.97158e-08
2.10054e-08
6.73496e-08
3.92546e-08
8.59207e-08
5.78638e-08
8.82901e-08
7.40486e-08
7.74334e-08
8.56472e-08
5.63585e-08
9.11048e-08
2.80447e-08
8.94655e-08
-4.62215e-09
8.03491e-08
-3.89165e-08
6.39204e-08
-7.23292e-08
4.08454e-08
-1.02616e-07
1.223e-08
-1.27848e-07
-2.04578e-08
-1.46456e-07
-5.54771e-08
-1.57262e-07
-9.09143e-08
-1.5952e-07
-1.24788e-07
-1.52935e-07
-1.55159e-07
-1.37673e-07
-1.80234e-07
-1.14362e-07
-1.98478e-07
-8.40815e-08
-2.08703e-07
-4.83465e-08
-2.10168e-07
-9.0787e-09
-2.02643e-07
3.14262e-08
-1.8648e-07
7.05357e-08
-1.62654e-07
1.05336e-07
-1.32798e-07
1.327e-07
-9.9221e-08
1.49351e-07
-6.49396e-08
1.51947e-07
-3.37238e-08
1.3716e-07
-1.01938e-08
1.01749e-07
4.26955e-08
6.80071e-09
2.29137e-08
2.1772e-08
5.23851e-08
4.05768e-08
6.71098e-08
5.97257e-08
6.91394e-08
7.63878e-08
6.07739e-08
8.83638e-08
4.43858e-08
9.40705e-08
2.23372e-08
9.25355e-08
-3.09165e-09
8.33788e-08
-2.97626e-08
6.6775e-08
-5.57247e-08
4.34047e-08
-7.92438e-08
1.43921e-08
-9.88343e-08
-1.87732e-08
-1.1329e-07
-5.4326e-08
-1.21709e-07
-9.03273e-08
-1.23518e-07
-1.2477e-07
-1.18492e-07
-1.55688e-07
-1.06755e-07
-1.81264e-07
-8.87858e-08
-1.99936e-07
-6.54099e-08
-2.10495e-07
-3.77872e-08
-2.12178e-07
-7.39512e-09
-2.04745e-07
2.39941e-08
-1.88546e-07
5.43361e-08
-1.64564e-07
8.13539e-08
-1.34452e-07
1.02587e-07
-1.00549e-07
1.15449e-07
-6.59023e-08
1.17303e-07
-3.4312e-08
1.05567e-07
-1.04184e-08
7.78584e-08
3.22736e-08
6.79521e-09
1.61134e-08
2.16611e-08
3.75282e-08
4.02997e-08
4.84708e-08
5.92841e-08
5.01531e-08
7.58327e-08
4.42231e-08
8.77839e-08
3.24375e-08
9.35794e-08
1.65462e-08
9.22626e-08
-1.77377e-09
8.34629e-08
-2.09646e-08
6.73579e-08
-3.9621e-08
4.46197e-08
-5.65053e-08
1.63503e-08
-7.05636e-08
-1.59952e-08
-8.09432e-08
-5.06957e-08
-8.7007e-08
-8.5862e-08
-8.83507e-08
-1.19539e-07
-8.48137e-08
-1.4981e-07
-7.64829e-08
-1.74901e-07
-6.36935e-08
-1.93284e-07
-4.70259e-08
-2.03772e-07
-2.72982e-08
-2.05609e-07
-5.55667e-09
-1.98551e-07
1.69367e-08
-1.82929e-07
3.87147e-08
-1.59703e-07
5.81283e-08
-1.30492e-07
7.33773e-08
-9.75925e-08
8.25513e-08
-6.39844e-08
8.36954e-08
-3.33546e-08
7.49324e-08
-1.01646e-08
5.46756e-08
2.21113e-08
6.37064e-09
9.73751e-09
2.02924e-08
2.36126e-08
3.77942e-08
3.09694e-08
5.56832e-08
3.22645e-08
7.13391e-08
2.85646e-08
8.27194e-08
2.10559e-08
8.83587e-08
1.09091e-08
8.73633e-08
-7.75201e-10
7.93918e-08
-1.29915e-08
6.4616e-08
-2.48454e-08
4.36676e-08
-3.55577e-08
1.75736e-08
-4.44704e-08
-1.23165e-08
-5.10535e-08
-4.44114e-08
-5.49124e-08
-7.69664e-08
-5.57961e-08
-1.08176e-07
-5.36042e-08
-1.36271e-07
-4.83893e-08
-1.59607e-07
-4.03576e-08
-1.76766e-07
-2.98674e-08
-1.86639e-07
-1.74256e-08
-1.88513e-07
-3.68336e-09
-1.82146e-07
1.05686e-08
-1.67834e-07
2.44017e-08
-1.46465e-07
3.67587e-08
-1.19555e-07
4.64669e-08
-8.92636e-08
5.22596e-08
-5.83913e-08
5.28205e-08
-3.03582e-08
4.69017e-08
-9.23948e-09
3.35493e-08
1.28733e-08
5.33531e-09
4.39941e-09
1.71884e-08
1.17613e-08
3.22832e-08
1.58764e-08
4.78421e-08
1.67075e-08
6.15472e-08
1.48593e-08
7.15913e-08
1.10087e-08
7.66944e-08
5.80333e-09
7.60906e-08
-1.71539e-10
6.94971e-08
-6.39665e-09
5.70727e-08
-1.24194e-08
3.93665e-08
-1.78504e-08
1.72606e-08
-2.23637e-08
-8.09414e-09
-2.5698e-08
-3.5346e-08
-2.76598e-08
-6.30159e-08
-2.81255e-08
-8.95741e-08
-2.70453e-08
-1.13519e-07
-2.44443e-08
-1.33453e-07
-2.04226e-08
-1.48164e-07
-1.51554e-08
-1.56698e-07
-8.89117e-09
-1.5843e-07
-1.95087e-09
-1.53134e-07
5.27277e-09
-1.41045e-07
1.23126e-08
-1.22913e-07
1.86272e-08
-1.00047e-07
2.36019e-08
-7.43394e-08
2.65511e-08
-4.82583e-08
2.6737e-08
-2.47999e-08
2.34511e-08
-7.42016e-09
1.61662e-08
5.45665e-09
3.47345e-09
9.24737e-10
1.18604e-08
3.37561e-09
2.292e-08
4.81726e-09
3.44889e-08
5.14136e-09
4.47597e-08
4.59267e-09
5.2352e-08
3.41849e-09
5.63155e-08
1.8393e-09
5.61015e-08
4.10952e-11
5.15233e-08
-1.81918e-09
4.27129e-08
-3.60939e-09
3.00801e-08
-5.2178e-09
1.42679e-08
-6.55162e-09
-3.89325e-09
-7.53701e-09
-2.34338e-08
-8.11952e-09
-4.32956e-08
-8.2642e-09
-6.23847e-08
-7.95665e-09
-7.96258e-08
-7.20365e-09
-9.40157e-08
-6.03304e-09
-1.04678e-07
-4.49375e-09
-1.10914e-07
-2.65566e-09
-1.12257e-07
-6.09356e-10
-1.08518e-07
1.53333e-09
-9.98427e-08
3.63682e-09
-8.67557e-08
5.53986e-09
-7.02077e-08
7.05257e-09
-5.16103e-08
7.95214e-09
-3.28521e-08
7.98093e-09
-1.62812e-08
6.87324e-09
-4.52261e-09
4.40397e-09
9.4085e-10
9.2572e-10
4.30127e-09
9.11716e-09
1.42569e-08
1.88491e-08
2.22684e-08
2.41089e-08
2.41509e-08
2.23323e-08
1.87234e-08
1.35061e-08
6.95511e-09
-5.81336e-10
-8.70036e-09
-1.69641e-08
-2.49203e-08
-3.21234e-08
-3.81559e-08
-4.26494e-08
-4.53049e-08
-4.5914e-08
-4.43801e-08
-4.07428e-08
-3.52028e-08
-2.81512e-08
-2.01993e-08
-1.2212e-08
-5.34062e-09
-9.36625e-10
)
;

boundaryField
{
    floor
    {
        type            calculated;
        value           uniform 0;
    }
    ceiling
    {
        type            calculated;
        value           uniform 0;
    }
    fixedWalls
    {
        type            calculated;
        value           uniform 0;
    }
    frontAndBack
    {
        type            empty;
    }
}


// ************************************************************************* //
