/*--------------------------------*- C++ -*----------------------------------*\
| =========                 |                                                 |
| \\      /  F ield         | OpenFOAM: The Open Source CFD Toolbox           |
|  \\    /   O peration     | Version:  2412                                  |
|   \\  /    A nd           | Website:  www.openfoam.com                      |
|    \\/     M anipulation  |                                                 |
\*---------------------------------------------------------------------------*/
FoamFile
{
    version     2.0;
    format      ascii;
    arch        "LSB;label=32;scalar=64";
    class       volVectorField;
    location    "800";
    object      U;
}
// * * * * * * * * * * * * * * * * * * * * * * * * * * * * * * * * * * * * * //

dimensions      [0 1 -1 0 0 0 0];

internalField   nonuniform List<vector> 
900
(
(-2.34289e-07 -1.8996e-07 0)
(-7.84033e-06 1.56561e-06 0)
(-2.23337e-05 2.64996e-06 0)
(-3.97905e-05 2.93658e-06 0)
(-5.68057e-05 2.66408e-06 0)
(-7.09219e-05 2.02789e-06 0)
(-8.041e-05 1.18001e-06 0)
(-8.42016e-05 2.27953e-07 0)
(-8.17804e-05 -7.47778e-07 0)
(-7.31125e-05 -1.6811e-06 0)
(-5.85888e-05 -2.5172e-06 0)
(-3.89635e-05 -3.21081e-06 0)
(-1.52933e-05 -3.72578e-06 0)
(1.11311e-05 -4.03606e-06 0)
(3.88538e-05 -4.12446e-06 0)
(6.63301e-05 -3.98363e-06 0)
(9.20036e-05 -3.61753e-06 0)
(0.000114388 -3.04047e-06 0)
(0.000132143 -2.27714e-06 0)
(0.000144154 -1.36223e-06 0)
(0.000149599 -3.39988e-07 0)
(0.000148018 7.35932e-07 0)
(0.000139371 1.80373e-06 0)
(0.0001241 2.78773e-06 0)
(0.0001032 3.58958e-06 0)
(7.83126e-05 4.07645e-06 0)
(5.18401e-05 4.06376e-06 0)
(2.70293e-05 3.32137e-06 0)
(7.94731e-06 1.63431e-06 0)
(-5.63236e-07 -6.18487e-07 0)
(-1.96765e-06 7.37139e-06 0)
(-2.31945e-05 2.18322e-05 0)
(-5.76525e-05 3.04332e-05 0)
(-9.73794e-05 3.25421e-05 0)
(-0.000135615 2.933e-05 0)
(-0.000167139 2.2175e-05 0)
(-0.000188049 1.23652e-05 0)
(-0.0001958 1.02791e-06 0)
(-0.000189083 -1.08537e-05 0)
(-0.000167723 -2.24095e-05 0)
(-0.000132571 -3.28814e-05 0)
(-8.53649e-05 -4.16267e-05 0)
(-2.85912e-05 -4.8127e-05 0)
(3.4685e-05 -5.19977e-05 0)
(0.000100983 -5.29929e-05 0)
(0.000166609 -5.10157e-05 0)
(0.00022784 -4.61232e-05 0)
(0.000281128 -3.85251e-05 0)
(0.000323292 -2.85796e-05 0)
(0.000351703 -1.67871e-05 0)
(0.000364465 -3.78088e-06 0)
(0.000360569 9.68381e-06 0)
(0.000340037 2.27417e-05 0)
(0.000304047 3.44028e-05 0)
(0.000255065 4.35303e-05 0)
(0.00019696 4.88231e-05 0)
(0.00013511 4.88273e-05 0)
(7.63187e-05 4.21061e-05 0)
(2.87891e-05 2.77624e-05 0)
(1.86772e-06 7.96037e-06 0)
(-3.18069e-06 2.3178e-05 0)
(-3.40932e-05 5.71012e-05 0)
(-8.16097e-05 7.57772e-05 0)
(-0.000135226 7.97158e-05 0)
(-0.000186288 7.13715e-05 0)
(-0.00022807 5.36197e-05 0)
(-0.000255417 2.93109e-05 0)
(-0.000264876 1.0978e-06 0)
(-0.000254619 -2.85993e-05 0)
(-0.000224355 -5.75855e-05 0)
(-0.000175201 -8.39196e-05 0)
(-0.000109517 -0.000105942 0)
(-3.07087e-05 -0.000122308 0)
(5.70005e-05 -0.000132014 0)
(0.000148798 -0.00013442 0)
(0.000239572 -0.000129279 0)
(0.000324172 -0.000116742 0)
(0.000397695 -9.73536e-05 0)
(0.000455757 -7.20493e-05 0)
(0.000494757 -4.21293e-05 0)
(0.00051212 -9.23437e-06 0)
(0.000506518 2.46883e-05 0)
(0.000478054 5.74232e-05 0)
(0.000428422 8.64858e-05 0)
(0.000361039 0.000109123 0)
(0.000281129 0.000122341 0)
(0.000195772 0.000123007 0)
(0.000113688 0.000108201 0)
(4.54776e-05 7.6001e-05 0)
(3.77601e-06 2.80163e-05 0)
(-3.75191e-06 4.3366e-05 0)
(-4.00401e-05 0.000101225 0)
(-9.50594e-05 0.000131499 0)
(-0.00015653 0.000137031 0)
(-0.000214645 0.000122038 0)
(-0.000261857 9.11541e-05 0)
(-0.000292348 4.9022e-05 0)
(-0.000302184 8.19886e-08 0)
(-0.000289254 -5.15194e-05 0)
(-0.000253204 -0.000101968 0)
(-0.000195306 -0.000147855 0)
(-0.000118282 -0.000186252 0)
(-2.60759e-05 -0.000214772 0)
(7.63972e-05 -0.000231628 0)
(0.000183532 -0.000235688 0)
(0.000289369 -0.000226511 0)
(0.000387905 -0.000204368 0)
(0.000473427 -0.000170233 0)
(0.000540838 -0.000125766 0)
(0.000585964 -7.32778e-05 0)
(0.000605837 -1.5673e-05 0)
(0.000598948 4.36142e-05 0)
(0.000565455 0.000100698 0)
(0.000507349 0.000151278 0)
(0.000428575 0.000190684 0)
(0.000335089 0.000213967 0)
(0.000234889 0.000216088 0)
(0.000137791 0.000192325 0)
(5.60186e-05 0.000139036 0)
(4.83081e-06 5.5411e-05 0)
(-3.87579e-06 6.55439e-05 0)
(-4.21607e-05 0.000149619 0)
(-0.00010022 0.000192285 0)
(-0.000164877 0.000199197 0)
(-0.00022575 0.000176663 0)
(-0.000274918 0.000131261 0)
(-0.000306286 6.95548e-05 0)
(-0.000315722 -2.1072e-06 0)
(-0.000301004 -7.77161e-05 0)
(-0.000261759 -0.000151694 0)
(-0.000199334 -0.000219025 0)
(-0.000116619 -0.000275374 0)
(-1.78137e-05 -0.000317198 0)
(9.18406e-05 -0.00034184 0)
(0.000206363 -0.000347613 0)
(0.000319389 -0.000333867 0)
(0.000424509 -0.000301004 0)
(0.000515627 -0.000250476 0)
(0.000587305 -0.000184755 0)
(0.000635101 -0.000107273 0)
(0.000655863 -2.23362e-05 0)
(0.000647996 6.49804e-05 0)
(0.000611683 0.00014896 0)
(0.000549042 0.00022333 0)
(0.000464248 0.000281363 0)
(0.000363576 0.000316027 0)
(0.000255451 0.000320208 0)
(0.000150269 0.00028709 0)
(6.12348e-05 0.000210707 0)
(5.2459e-06 8.6849e-05 0)
(-3.72989e-06 8.79601e-05 0)
(-4.15687e-05 0.000198868 0)
(-9.92522e-05 0.000254203 0)
(-0.000163504 0.000262408 0)
(-0.000223885 0.000232003 0)
(-0.000272444 0.000171598 0)
(-0.000303083 8.97292e-05 0)
(-0.000311674 -5.30428e-06 0)
(-0.000296002 -0.000105593 0)
(-0.0002557 -0.000203753 0)
(-0.000192129 -0.000293116 0)
(-0.000108202 -0.000367896 0)
(-8.15172e-06 -0.000423354 0)
(0.000102735 -0.000455929 0)
(0.000218425 -0.000463361 0)
(0.000332495 -0.000444779 0)
(0.000438475 -0.000400724 0)
(0.000530214 -0.000333142 0)
(0.000602226 -0.000245349 0)
(0.000650031 -0.000141938 0)
(0.000670452 -2.86653e-05 0)
(0.000661885 8.77024e-05 0)
(0.000624512 0.000199565 0)
(0.000560463 0.000298629 0)
(0.000473932 0.000376064 0)
(0.000371227 0.00042269 0)
(0.000260849 0.000429212 0)
(0.000153363 0.000386512 0)
(6.23256e-05 0.000285981 0)
(5.23845e-06 0.000119766 0)
(-3.43251e-06 0.000109442 0)
(-3.91463e-05 0.000246464 0)
(-9.39422e-05 0.000314232 0)
(-0.000155085 0.000323702 0)
(-0.000212513 0.000285546 0)
(-0.000258543 0.000210386 0)
(-0.000287294 0.000108708 0)
(-0.000294791 -9.27318e-06 0)
(-0.000278908 -0.000133782 0)
(-0.000239302 -0.000255664 0)
(-0.000177294 -0.000366627 0)
(-9.5704e-05 -0.000459459 0)
(1.37451e-06 -0.000528244 0)
(0.000108826 -0.000568526 0)
(0.000220818 -0.000577483 0)
(0.000331138 -0.000554025 0)
(0.000433526 -0.000498826 0)
(0.00052203 -0.000414325 0)
(0.000591343 -0.000304664 0)
(0.000637128 -0.000175585 0)
(0.000656311 -3.427e-05 0)
(0.000647334 0.000110848 0)
(0.000610369 0.000250314 0)
(0.000547477 0.000373845 0)
(0.000462717 0.000470531 0)
(0.000362215 0.000529052 0)
(0.000254259 0.000537906 0)
(0.000149203 0.000485606 0)
(6.03736e-05 0.000360837 0)
(4.96778e-06 0.000152282 0)
(-3.0533e-06 0.000129229 0)
(-3.55224e-05 0.000290654 0)
(-8.56458e-05 0.000370169 0)
(-0.000141699 0.000380875 0)
(-0.000194348 0.000335422 0)
(-0.000236429 0.000246324 0)
(-0.000262457 0.000125921 0)
(-0.000268732 -1.37521e-05 0)
(-0.00025328 -0.000161147 0)
(-0.000215791 -0.000305436 0)
(-0.000157503 -0.000436786 0)
(-8.10513e-05 -0.000546639 0)
(9.74554e-06 -0.000627959 0)
(0.000110115 -0.000675448 0)
(0.00021462 -0.000685748 0)
(0.000317466 -0.000657559 0)
(0.000412816 -0.000591684 0)
(0.000495117 -0.000491025 0)
(0.000559415 -0.000360509 0)
(0.00060166 -0.000206964 0)
(0.000618979 -3.89257e-05 0)
(0.000609911 0.000133592 0)
(0.000574616 0.000299372 0)
(0.00051502 0.000446231 0)
(0.000434933 0.000561269 0)
(0.000340117 0.000631102 0)
(0.000238395 0.000642077 0)
(0.000139565 0.000580407 0)
(5.62195e-05 0.0004322 0)
(4.53499e-06 0.000183059 0)
(-2.63202e-06 0.000146838 0)
(-3.11307e-05 0.000330244 0)
(-7.5355e-05 0.000420452 0)
(-0.000124914 0.000432331 0)
(-0.000171469 0.00038026 0)
(-0.000208575 0.000278467 0)
(-0.000231297 0.000140983 0)
(-0.000236305 -1.84821e-05 0)
(-0.000221829 -0.000186757 0)
(-0.000187596 -0.000351477 0)
(-0.000134731 -0.000501404 0)
(-6.5608e-05 -0.000626745 0)
(1.63322e-05 -0.000719447 0)
(0.000106793 -0.000773437 0)
(0.000200885 -0.00078487 0)
(0.000293395 -0.000752254 0)
(0.000379069 -0.000676506 0)
(0.000452908 -0.000560951 0)
(0.000510451 -0.000411234 0)
(0.000548045 -0.000235174 0)
(0.000563095 -4.25453e-05 0)
(0.000554282 0.000155187 0)
(0.000521747 0.000345182 0)
(0.000467236 0.000513504 0)
(0.000394208 0.000645403 0)
(0.000307911 0.000725572 0)
(0.000215476 0.000738349 0)
(0.000125853 0.000667817 0)
(5.04878e-05 0.000497759 0)
(4.0031e-06 0.000211147 0)
(-2.1907e-06 0.000161968 0)
(-2.62656e-05 0.000364448 0)
(-6.37819e-05 0.000464015 0)
(-0.000105894 0.000476952 0)
(-0.000145445 0.000419095 0)
(-0.00017687 0.000306155 0)
(-0.000195899 0.000153654 0)
(-0.000199654 -2.32183e-05 0)
(-0.000186609 -0.000209854 0)
(-0.000156536 -0.000392532 0)
(-0.000110416 -0.000558773 0)
(-5.03103e-05 -0.000697698 0)
(2.0801e-05 -0.000800355 0)
(9.92e-05 -0.000859995 0)
(0.000180659 -0.000872341 0)
(0.000260667 -0.000835731 0)
(0.000334683 -0.000751184 0)
(0.000398377 -0.000622391 0)
(0.000447887 -0.00045563 0)
(0.000480044 -0.000259593 0)
(0.000492595 -4.51497e-05 0)
(0.00048439 0.000174953 0)
(0.00045555 0.00038643 0)
(0.000407599 0.000573782 0)
(0.000343564 0.0007206 0)
(0.000268042 0.000809851 0)
(0.000187291 0.000824076 0)
(0.000109158 0.000745466 0)
(4.36371e-05 0.000555798 0)
(3.41098e-06 0.000235874 0)
(-1.74201e-06 0.000174444 0)
(-2.11282e-05 0.000392772 0)
(-5.14353e-05 0.000500166 0)
(-8.5492e-05 0.000513996 0)
(-0.000117451 0.000451281 0)
(-0.000142741 0.000328958 0)
(-0.000157849 0.000163806 0)
(-0.000160409 -2.77338e-05 0)
(-0.000149171 -0.000229835 0)
(-0.000123958 -0.000427629 0)
(-8.55878e-05 -0.00060759 0)
(-3.57667e-05 -0.000757919 0)
(2.30451e-05 -0.000868911 0)
(8.77845e-05 -0.000933247 0)
(0.000154971 -0.000946288 0)
(0.000220891 -0.000906227 0)
(0.000281803 -0.000814163 0)
(0.00033414 -0.0006741 0)
(0.000374715 -0.000492844 0)
(0.000400909 -0.000279826 0)
(0.000410856 -4.68374e-05 0)
(0.000403598 0.000192284 0)
(0.000379235 0.000422023 0)
(0.000339032 0.00062554 0)
(0.000285512 0.000785007 0)
(0.000222515 0.000881902 0)
(0.00015527 0.000897229 0)
(9.03302e-05 0.000811579 0)
(3.60061e-05 0.000605067 0)
(2.78228e-06 0.000256765 0)
(-1.29349e-06 0.000184176 0)
(-1.58574e-05 0.000414934 0)
(-3.86796e-05 0.000528488 0)
(-6.43345e-05 0.000543011 0)
(-8.83631e-05 0.000476421 0)
(-0.000107264 0.000346624 0)
(-0.000118345 0.000171395 0)
(-0.000119797 -3.18231e-05 0)
(-0.00011067 -0.00024623 0)
(-9.08437e-05 -0.000456038 0)
(-6.0957e-05 -0.000646888 0)
(-2.23325e-05 -0.000806252 0)
(2.3132e-05 -0.000923824 0)
(7.3082e-05 -0.000991837 0)
(0.000124846 -0.00100536 0)
(0.00017557 -0.000962479 0)
(0.00022238 -0.000864347 0)
(0.000262534 -0.000715215 0)
(0.000293575 -0.000522309 0)
(0.000313482 -0.000295645 0)
(0.00032081 -4.77521e-05 0)
(0.000314809 0.000206658 0)
(0.00029555 0.00045108 0)
(0.000264011 0.000667589 0)
(0.000222155 0.0008372 0)
(0.000172979 0.000940187 0)
(0.000120567 0.000956304 0)
(7.0034e-05 0.000864865 0)
(2.78494e-05 0.000644678 0)
(2.131e-06 0.000273496 0)
(-8.49678e-07 0.000191127 0)
(-1.05506e-05 0.000430802 0)
(-2.57781e-05 0.000548776 0)
(-4.28816e-05 0.000563762 0)
(-5.88322e-05 0.000494318 0)
(-7.12447e-05 0.000359044 0)
(-7.82876e-05 0.000176444 0)
(-7.87354e-05 -3.53033e-05 0)
(-7.19581e-05 -0.000258681 0)
(-5.78908e-05 -0.000477233 0)
(-3.69877e-05 -0.000675991 0)
(-1.01664e-05 -0.000841899 0)
(2.12644e-05 -0.000964213 0)
(5.56936e-05 -0.00103485 0)
(9.12965e-05 -0.00104866 0)
(0.000126123 -0.00100365 0)
(0.000158208 -0.000901016 0)
(0.000185672 -0.000745183 0)
(0.000206829 -0.000543681 0)
(0.000220286 -0.000306947 0)
(0.000225036 -4.80506e-05 0)
(0.000220551 0.000217656 0)
(0.000206866 0.000472934 0)
(0.000184651 0.000699047 0)
(0.000155268 0.00087615 0)
(0.000120807 0.000983612 0)
(8.41232e-05 0.00100025 0)
(4.88014e-05 0.000904445 0)
(1.93649e-05 0.00067404 0)
(1.46623e-06 0.00028586 0)
(-4.13539e-07 0.000195303 0)
(-5.27767e-06 0.000440353 0)
(-1.29221e-05 0.000560975 0)
(-2.14724e-05 0.000576185 0)
(-2.9343e-05 0.000504921 0)
(-3.52853e-05 0.000366214 0)
(-3.83474e-05 0.000179022 0)
(-3.7903e-05 -3.8016e-05 0)
(-3.36475e-05 -0.000266936 0)
(-2.5576e-05 -0.000490867 0)
(-1.39507e-05 -0.000694469 0)
(7.26113e-07 -0.000864363 0)
(1.77505e-05 -0.000989542 0)
(3.62712e-05 -0.00106172 0)
(5.533e-05 -0.00107565 0)
(7.39029e-05 -0.00102925 0)
(9.09543e-05 -0.000923757 0)
(0.000105492 -0.000763699 0)
(0.000116617 -0.000556786 0)
(0.00012358 -0.000313712 0)
(0.000125828 -4.78765e-05 0)
(0.000123055 0.00022497 0)
(0.000115259 0.000487121 0)
(0.000102787 0.000719328 0)
(8.63714e-05 0.000901186 0)
(6.71577e-05 0.00101148 0)
(4.67261e-05 0.00102843 0)
(2.70693e-05 0.000929784 0)
(1.07141e-05 0.000692808 0)
(7.9653e-07 0.000293745 0)
(1.28621e-08 0.000196739 0)
(-8.8899e-08 0.000443648 0)
(-2.51787e-07 0.000565147 0)
(-3.57931e-07 0.000580339 0)
(-2.56476e-07 0.000508296 0)
(1.64957e-07 0.000368213 0)
(9.76902e-07 0.000179231 0)
(2.20524e-06 -3.98324e-05 0)
(3.82951e-06 -0.000270837 0)
(5.79448e-06 -0.000496754 0)
(8.03119e-06 -0.000702112 0)
(1.04577e-05 -0.000873419 0)
(1.29793e-05 -0.000999579 0)
(1.55053e-05 -0.00107225 0)
(1.79462e-05 -0.00108611 0)
(2.02077e-05 -0.00103909 0)
(2.21903e-05 -0.000932424 0)
(2.37908e-05 -0.000770669 0)
(2.49043e-05 -0.000561594 0)
(2.54263e-05 -0.00031598 0)
(2.52588e-05 -4.73461e-05 0)
(2.43221e-05 0.000228406 0)
(2.25745e-05 0.000493382 0)
(2.00333e-05 0.000728115 0)
(1.67925e-05 0.000911958 0)
(1.30357e-05 0.00102344 0)
(9.0472e-06 0.0010405 0)
(5.20873e-06 0.00094064 0)
(2.035e-06 0.000700843 0)
(1.31923e-07 0.000297116 0)
(4.28454e-07 0.000195491 0)
(4.97979e-06 0.000440805 0)
(1.21296e-05 0.000561442 0)
(2.02739e-05 0.000576383 0)
(2.81543e-05 0.000504594 0)
(3.47659e-05 0.000365179 0)
(3.93114e-05 0.000177185 0)
(4.12261e-05 -4.06598e-05 0)
(4.01731e-05 -0.000270317 0)
(3.60393e-05 -0.000494857 0)
(2.89462e-05 -0.000698911 0)
(1.92295e-05 -0.000869087 0)
(7.39896e-06 -0.00099437 0)
(-5.88744e-06 -0.00106647 0)
(-1.98631e-05 -0.00108013 0)
(-3.37053e-05 -0.00103326 0)
(-4.65889e-05 -0.000927111 0)
(-5.77386e-05 -0.000766187 0)
(-6.64767e-05 -0.000558196 0)
(-7.22692e-05 -0.000313842 0)
(-7.47638e-05 -4.65469e-05 0)
(-7.38171e-05 0.00022788 0)
(-6.95097e-05 0.000491636 0)
(-6.21507e-05 0.000725334 0)
(-5.22805e-05 0.000908404 0)
(-4.06701e-05 0.00101944 0)
(-2.83227e-05 0.00103646 0)
(-1.64571e-05 0.000937017 0)
(-6.55408e-06 0.000698165 0)
(-5.19103e-07 0.000295988 0)
(8.32926e-07 0.000191628 0)
(9.90159e-06 0.000431987 0)
(2.41421e-05 0.000550075 0)
(4.02747e-05 0.000564546 0)
(5.56726e-05 0.000494033 0)
(6.82486e-05 0.000357288 0)
(7.63647e-05 0.000173006 0)
(7.88855e-05 -4.04493e-05 0)
(7.51723e-05 -0.000265404 0)
(6.50609e-05 -0.000485285 0)
(4.8857e-05 -0.000685052 0)
(2.73021e-05 -0.000851613 0)
(1.49546e-06 -0.000974207 0)
(-2.71757e-05 -0.00104473 0)
(-5.71149e-05 -0.00105804 0)
(-8.66108e-05 -0.00101211 0)
(-0.000113942 -0.000908129 0)
(-0.000137479 -0.000750519 0)
(-0.000155784 -0.0005468 0)
(-0.000167703 -0.000307431 0)
(-0.000172445 -4.55365e-05 0)
(-0.000169649 0.000223413 0)
(-0.000159429 0.000481975 0)
(-0.000142411 0.000711141 0)
(-0.000119749 0.000890729 0)
(-9.31414e-05 0.000999725 0)
(-6.48443e-05 0.00101654 0)
(-3.76365e-05 0.000919127 0)
(-1.49531e-05 0.000684929 0)
(-1.15474e-06 0.000290421 0)
(1.22617e-06 0.000185234 0)
(1.46532e-05 0.000417395 0)
(3.57149e-05 0.000531314 0)
(5.9514e-05 0.00054512 0)
(8.21081e-05 0.000476879 0)
(0.000100378 0.000344747 0)
(0.000111887 0.000166808 0)
(0.000114956 -3.91969e-05 0)
(0.000108663 -0.000256216 0)
(9.28039e-05 -0.000468276 0)
(6.7863e-05 -0.000660886 0)
(3.49657e-05 -0.000821449 0)
(-4.22446e-06 -0.000939613 0)
(-4.76202e-05 -0.00100759 0)
(-9.28323e-05 -0.00102042 0)
(-0.000137304 -0.000976166 0)
(-0.000178459 -0.00087597 0)
(-0.000213855 -0.000724068 0)
(-0.000241329 -0.000527694 0)
(-0.000259133 -0.000296903 0)
(-0.000266054 -4.4325e-05 0)
(-0.00026152 0.000215139 0)
(-0.000245676 0.00046467 0)
(-0.000219442 0.000685921 0)
(-0.000184553 0.000859399 0)
(-0.000143588 0.000964797 0)
(-9.99973e-05 0.000981242 0)
(-5.80519e-05 0.000887396 0)
(-2.30712e-05 0.000661428 0)
(-1.77854e-06 0.000280528 0)
(1.60794e-06 0.000176401 0)
(1.92103e-05 0.000397259 0)
(4.67738e-05 0.000505477 0)
(7.78562e-05 0.000518448 0)
(0.000107264 0.000453449 0)
(0.000130913 0.000327794 0)
(0.000145622 0.000158706 0)
(0.000149206 -3.69413e-05 0)
(0.00014048 -0.000242954 0)
(0.000119212 -0.000444193 0)
(8.60613e-05 -0.000626931 0)
(4.25103e-05 -0.000779238 0)
(-9.25209e-06 -0.000891325 0)
(-6.64802e-05 -0.000955828 0)
(-0.00012604 -0.000968062 0)
(-0.000184583 -0.000926189 0)
(-0.000238737 -0.000831288 0)
(-0.000285299 -0.000687358 0)
(-0.000321428 -0.000501232 0)
(-0.000344816 -0.000282415 0)
(-0.000353857 -4.28598e-05 0)
(-0.000347773 0.000203322 0)
(-0.000326733 0.00044018 0)
(-0.000291924 0.000650298 0)
(-0.000245617 0.000815155 0)
(-0.000191204 0.000915447 0)
(-0.000133249 0.000931321 0)
(-7.74183e-05 0.000842474 0)
(-3.08094e-05 0.000628116 0)
(-2.38808e-06 0.000266495 0)
(1.97775e-06 0.000165233 0)
(2.35409e-05 0.000371852 0)
(5.72248e-05 0.000472943 0)
(9.51322e-05 0.000484944 0)
(0.000130902 0.000424115 0)
(0.000159558 0.000306698 0)
(0.000177253 0.000148813 0)
(0.000181345 -3.37613e-05 0)
(0.000170405 -0.000225909 0)
(0.000144182 -0.000413534 0)
(0.000103504 -0.000583869 0)
(5.01876e-05 -0.000725826 0)
(-1.31036e-05 -0.000830308 0)
(-8.30242e-05 -0.000890476 0)
(-0.000155758 -0.000901989 0)
(-0.000227231 -0.00086314 0)
(-0.000293345 -0.000774926 0)
(-0.000350205 -0.000641052 0)
(-0.000394345 -0.000467853 0)
(-0.000422952 -0.000264151 0)
(-0.000434049 -4.10472e-05 0)
(-0.000426672 0.000188334 0)
(-0.000400998 0.000409136 0)
(-0.000358453 0.000605119 0)
(-0.000301783 0.000758996 0)
(-0.000235115 0.000852741 0)
(-0.000164013 0.000867811 0)
(-9.54145e-05 0.00078524 0)
(-3.8044e-05 0.000585605 0)
(-2.96745e-06 0.000248559 0)
(2.3347e-06 0.00015185 0)
(2.75984e-05 0.000341499 0)
(6.69327e-05 0.00043417 0)
(0.000111102 0.000445106 0)
(0.000152685 0.000389323 0)
(0.000185908 0.00028177 0)
(0.000206339 0.000137248 0)
(0.000210945 -2.97794e-05 0)
(0.000198089 -0.000205471 0)
(0.000167492 -0.000376951 0)
(0.000120146 -0.000532589 0)
(5.81675e-05 -0.000662291 0)
(-1.53556e-05 -0.000757781 0)
(-9.65517e-05 -0.000812835 0)
(-0.000181003 -0.000823507 0)
(-0.000263997 -0.000788248 0)
(-0.000340789 -0.000707961 0)
(-0.000406872 -0.000586006 0)
(-0.000458231 -0.000428134 0)
(-0.000491599 -0.000242364 0)
(-0.000504673 -3.87946e-05 0)
(-0.000496312 0.000170614 0)
(-0.000466699 0.000372303 0)
(-0.000417456 0.000551425 0)
(-0.000351741 0.000692162 0)
(-0.000274312 0.000778011 0)
(-0.000191601 0.000792001 0)
(-0.00011165 0.000716794 0)
(-4.46244e-05 0.000534656 0)
(-3.50298e-06 0.000226984 0)
(2.67605e-06 0.000136406 0)
(3.13065e-05 0.000306609 0)
(7.56888e-05 0.000389732 0)
(0.000125401 0.000399554 0)
(0.000172112 0.000349615 0)
(0.000209364 0.000253375 0)
(0.00023223 0.000124127 0)
(0.000237363 -2.51697e-05 0)
(0.000222961 -0.000182132 0)
(0.000188724 -0.000335259 0)
(0.000135773 -0.000474194 0)
(6.64887e-05 -0.000589972 0)
(-1.56785e-05 -0.000675245 0)
(-0.000106413 -0.000724491 0)
(-0.000200794 -0.000734204 0)
(-0.000293574 -0.00070301 0)
(-0.000379466 -0.000631706 0)
(-0.000453447 -0.000523265 0)
(-0.000511039 -0.000382783 0)
(-0.000548589 -0.00021737 0)
(-0.000563515 -3.59964e-05 0)
(-0.000554523 0.000150696 0)
(-0.00052179 0.000330615 0)
(-0.000467096 0.000490496 0)
(-0.000393933 0.000616188 0)
(-0.000307573 0.00069292 0)
(-0.000215157 0.000705522 0)
(-0.00012563 0.000638541 0)
(-5.03712e-05 0.000476236 0)
(-3.99911e-06 0.00020212 0)
(2.99354e-06 0.000119101 0)
(3.45352e-05 0.000267719 0)
(8.31656e-05 0.000340366 0)
(0.00013748 0.000349073 0)
(0.000188433 0.000305677 0)
(0.000229035 0.000221971 0)
(0.000253966 0.00010959 0)
(0.00025964 -2.01546e-05 0)
(0.000244141 -0.000156493 0)
(0.000207162 -0.000289437 0)
(0.000149919 -0.000410015 0)
(7.49969e-05 -0.000510486 0)
(-1.38695e-05 -0.000584522 0)
(-0.000112017 -0.000627363 0)
(-0.000214137 -0.000635994 0)
(-0.000314569 -0.000609225 0)
(-0.000407614 -0.000547738 0)
(-0.000487847 -0.000454085 0)
(-0.000550433 -0.000332646 0)
(-0.000591416 -0.000189544 0)
(-0.000607993 -3.25183e-05 0)
(-0.000598743 0.00012923 0)
(-0.000563832 0.000285216 0)
(-0.000505154 0.000423906 0)
(-0.000426448 0.000532974 0)
(-0.000333368 0.000599551 0)
(-0.000233583 0.000610445 0)
(-0.000136699 0.000552296 0)
(-5.50332e-05 0.000411624 0)
(-4.44734e-06 0.000174477 0)
(3.2682e-06 0.000100221 0)
(3.70651e-05 0.000225568 0)
(8.88515e-05 0.000287055 0)
(0.000146518 0.000294683 0)
(0.000200551 0.000258391 0)
(0.000243622 0.000188158 0)
(0.000270147 9.38408e-05 0)
(0.000276374 -1.49958e-05 0)
(0.000260318 -0.000129296 0)
(0.000221685 -0.000240692 0)
(0.000161758 -0.000341689 0)
(8.32504e-05 -0.000425835 0)
(-9.91748e-06 -0.000487873 0)
(-0.000112859 -0.000523856 0)
(-0.000220014 -0.000531283 0)
(-0.000325462 -0.000509165 0)
(-0.000423238 -0.000458063 0)
(-0.000507665 -0.000380084 0)
(-0.000573673 -0.000278854 0)
(-0.000617108 -0.000159453 0)
(-0.000635015 -2.83133e-05 0)
(-0.000625882 0.00010689 0)
(-0.000589857 0.000237377 0)
(-0.000528899 0.000353459 0)
(-0.000446901 0.000444746 0)
(-0.000349755 0.000500383 0)
(-0.000245449 0.000509274 0)
(-0.000143986 0.00046029 0)
(-5.8229e-05 0.000342418 0)
(-4.79679e-06 0.000144688 0)
(3.46523e-06 8.01923e-05 0)
(3.85459e-05 0.000181199 0)
(9.19725e-05 0.000231151 0)
(0.000151327 0.000237749 0)
(0.000206916 0.00020891 0)
(0.000251293 0.000152706 0)
(0.000278774 7.71509e-05 0)
(0.000285537 -1.00019e-05 0)
(0.000269572 -0.000101456 0)
(0.000230606 -0.000190522 0)
(0.000169961 -0.000271235 0)
(9.04001e-05 -0.000338472 0)
(-4.0965e-06 -0.000388074 0)
(-0.000108573 -0.000416922 0)
(-0.000217393 -0.000423041 0)
(-0.000324559 -0.000405651 0)
(-0.000424029 -0.000365186 0)
(-0.000510047 -0.000303304 0)
(-0.000577466 -0.000222859 0)
(-0.00062206 -0.000127862 0)
(-0.000640806 -2.34056e-05 0)
(-0.000632147 8.44078e-05 0)
(-0.000596204 0.000188563 0)
(-0.000534946 0.000281274 0)
(-0.000452311 0.000354154 0)
(-0.000354268 0.000398414 0)
(-0.000248904 0.000405095 0)
(-0.000146314 0.000365345 0)
(-5.94263e-05 0.000270742 0)
(-4.98909e-06 0.000113594 0)
(3.52675e-06 5.96631e-05 0)
(3.84509e-05 0.000136097 0)
(9.1413e-05 0.000174504 0)
(0.000150229 0.000180088 0)
(0.000205368 0.00015874 0)
(0.000249513 0.000116629 0)
(0.000277074 5.99077e-05 0)
(0.000284287 -5.49802e-06 0)
(0.00026918 -7.40571e-05 0)
(0.000231499 -0.000140752 0)
(0.000172563 -0.000201142 0)
(9.50863e-05 -0.000251437 0)
(2.96509e-06 -0.000288563 0)
(-9.89671e-05 -0.000310222 0)
(-0.000205217 -0.000314957 0)
(-0.000309943 -0.000302191 0)
(-0.000407257 -0.000272238 0)
(-0.000491547 -0.000226313 0)
(-0.000557785 -0.000166511 0)
(-0.000601827 -9.57852e-05 0)
(-0.000620698 -1.79021e-05 0)
(-0.00061284 6.26048e-05 0)
(-0.000578341 0.000140486 0)
(-0.000519107 0.000209868 0)
(-0.000438986 0.000264375 0)
(-0.000343841 0.000297278 0)
(-0.000241604 0.000301717 0)
(-0.000142122 0.00027105 0)
(-5.78877e-05 0.0001994 0)
(-4.9544e-06 8.243e-05 0)
(3.347e-06 3.96536e-05 0)
(3.602e-05 9.23739e-05 0)
(8.56546e-05 0.000119623 0)
(0.000140973 0.000124135 0)
(0.000193026 0.000109908 0)
(0.000234895 8.1313e-05 0)
(0.000261305 4.26987e-05 0)
(0.00026873 -1.80011e-06 0)
(0.000255338 -4.83717e-05 0)
(0.00022091 -9.36029e-05 0)
(0.000166697 -0.000134507 0)
(9.52366e-05 -0.000168553 0)
(1.0152e-05 -0.000193697 0)
(-8.40837e-05 -0.000208416 0)
(-0.000182395 -0.000211741 0)
(-0.00027939 -0.000203287 0)
(-0.000369632 -0.000183258 0)
(-0.000447933 -0.000152454 0)
(-0.00050963 -0.000112259 0)
(-0.000550868 -6.46307e-05 0)
(-0.000568854 -1.20777e-05 0)
(-0.000562101 4.2361e-05 0)
(-0.000530646 9.51336e-05 0)
(-0.000476229 0.00014222 0)
(-0.000402437 0.000179197 0)
(-0.000314775 0.000201333 0)
(-0.000220716 0.00020376 0)
(-0.000129477 0.00018186 0)
(-5.26018e-05 0.000131968 0)
(-4.53137e-06 5.28941e-05 0)
(2.76488e-06 2.16489e-05 0)
(3.02634e-05 5.28608e-05 0)
(7.28281e-05 6.97136e-05 0)
(0.000120767 7.2954e-05 0)
(0.000166198 6.49854e-05 0)
(0.000202974 4.85446e-05 0)
(0.000226455 2.63037e-05 0)
(0.00023359 7.27006e-07 0)
(0.000222835 -2.59676e-05 0)
(0.000194039 -5.18294e-05 0)
(0.000148302 -7.51729e-05 0)
(8.78193e-05 -9.45818e-05 0)
(1.56879e-05 -0.000108921 0)
(-6.4287e-05 -0.000117346 0)
(-0.000147799 -0.000119319 0)
(-0.000230281 -0.000114625 0)
(-0.000307124 -0.000103373 0)
(-0.000373924 -8.60028e-05 0)
(-0.000426709 -6.32777e-05 0)
(-0.000462173 -3.62816e-05 0)
(-0.000477897 -6.41093e-06 0)
(-0.000472556 2.46295e-05 0)
(-0.000446117 5.48225e-05 0)
(-0.000400021 8.18476e-05 0)
(-0.000337333 0.000103097 0)
(-0.000262843 0.000115707 0)
(-0.000183124 0.000116656 0)
(-0.000106328 0.000103087 0)
(-4.24611e-05 7.29372e-05 0)
(-3.51061e-06 2.72815e-05 0)
(1.50578e-06 8.07474e-06 0)
(2.01989e-05 2.17605e-05 0)
(5.10045e-05 2.95446e-05 0)
(8.64604e-05 3.12739e-05 0)
(0.000120395 2.81539e-05 0)
(0.00014805 2.15015e-05 0)
(0.000165934 1.25248e-05 0)
(0.000171827 2.26897e-06 0)
(0.000164655 -8.36918e-06 0)
(0.000144367 -1.86258e-05 0)
(0.000111808 -2.7852e-05 0)
(6.85892e-05 -3.55082e-05 0)
(1.69571e-05 -4.11648e-05 0)
(-4.03536e-05 -4.45042e-05 0)
(-0.00010026 -4.53232e-05 0)
(-0.000159497 -4.35385e-05 0)
(-0.000214769 -3.91901e-05 0)
(-0.000262918 -3.24409e-05 0)
(-0.000301085 -2.35768e-05 0)
(-0.00032687 -1.30049e-05 0)
(-0.000338486 -1.25332e-06 0)
(-0.000334913 1.10273e-05 0)
(-0.000316049 2.30524e-05 0)
(-0.000282864 3.38963e-05 0)
(-0.000237542 4.24808e-05 0)
(-0.000183604 4.75623e-05 0)
(-0.000126004 4.77421e-05 0)
(-7.11062e-05 4.16264e-05 0)
(-2.6683e-05 2.81666e-05 0)
(-1.61832e-06 8.8807e-06 0)
(-1.71211e-07 7.97269e-07 0)
(6.40289e-06 2.67033e-06 0)
(1.95205e-05 3.64162e-06 0)
(3.51742e-05 3.86661e-06 0)
(5.03039e-05 3.58516e-06 0)
(6.26906e-05 2.98354e-06 0)
(7.08046e-05 2.20356e-06 0)
(7.37293e-05 1.34475e-06 0)
(7.1061e-05 4.79918e-07 0)
(6.28276e-05 -3.36197e-07 0)
(4.94215e-05 -1.05966e-06 0)
(3.15412e-05 -1.6549e-06 0)
(1.01352e-05 -2.09405e-06 0)
(-1.36559e-05 -2.35704e-06 0)
(-3.8556e-05 -2.43062e-06 0)
(-6.32147e-05 -2.30886e-06 0)
(-8.62696e-05 -1.99389e-06 0)
(-0.000106411 -1.49548e-06 0)
(-0.000122444 -8.31383e-07 0)
(-0.000133353 -2.73701e-08 0)
(-0.000138361 8.827e-07 0)
(-0.000136996 1.85615e-06 0)
(-0.000129153 2.83758e-06 0)
(-0.000115174 3.75533e-06 0)
(-9.59265e-05 4.51523e-06 0)
(-7.28936e-05 4.98931e-06 0)
(-4.82651e-05 5.00199e-06 0)
(-2.50686e-05 4.34085e-06 0)
(-7.18632e-06 2.7445e-06 0)
(6.953e-07 2.77652e-07 0)
)
;

boundaryField
{
    floor
    {
        type            noSlip;
    }
    ceiling
    {
        type            noSlip;
    }
    fixedWalls
    {
        type            noSlip;
    }
    frontAndBack
    {
        type            empty;
    }
}


// ************************************************************************* //
