/*--------------------------------*- C++ -*----------------------------------*\
| =========                 |                                                 |
| \\      /  F ield         | OpenFOAM: The Open Source CFD Toolbox           |
|  \\    /   O peration     | Version:  2412                                  |
|   \\  /    A nd           | Website:  www.openfoam.com                      |
|    \\/     M anipulation  |                                                 |
\*---------------------------------------------------------------------------*/
FoamFile
{
    version     2.0;
    format      ascii;
    arch        "LSB;label=32;scalar=64";
    class       volScalarField;
    location    "800";
    object      p;
}
// * * * * * * * * * * * * * * * * * * * * * * * * * * * * * * * * * * * * * //

dimensions      [0 2 -2 0 0 0 0];

internalField   nonuniform List<scalar> 
40000
(
0
-1.59573e-06
-3.19036e-06
-4.16742e-06
-4.18441e-06
-3.11421e-06
-9.60341e-07
2.20473e-06
6.27348e-06
1.11153e-05
1.66022e-05
2.26028e-05
2.89976e-05
3.5676e-05
4.25369e-05
4.9494e-05
5.64686e-05
6.33975e-05
7.02246e-05
7.6906e-05
8.34047e-05
8.96925e-05
9.57486e-05
0.000101556
0.000107108
0.000112396
0.000117422
0.000122184
0.000126688
0.000130939
0.000134947
0.000138719
0.000142267
0.000145599
0.000148727
0.000151661
0.000154413
0.000156994
0.000159412
0.00016168
0.000163805
0.000165799
0.000167666
0.000169419
0.000171064
0.000172607
0.000174057
0.00017542
0.0001767
0.000177904
0.000179038
0.000180105
0.000181109
0.000182057
0.00018295
0.000183792
0.000184587
0.000185338
0.000186047
0.000186717
0.000187351
0.00018795
0.000188516
0.000189052
0.000189559
0.000190039
0.000190493
0.000190923
0.000191329
0.000191714
0.000192077
0.000192421
0.000192745
0.000193052
0.000193341
0.000193614
0.000193871
0.000194112
0.000194339
0.000194552
0.000194751
0.000194937
0.00019511
0.000195271
0.00019542
0.000195557
0.000195683
0.000195798
0.000195902
0.000195995
0.000196078
0.000196151
0.000196213
0.000196266
0.000196309
0.000196341
0.000196365
0.000196379
0.000196383
0.000196378
0.000196363
0.000196338
0.000196304
0.000196261
0.000196207
0.000196144
0.000196071
0.000195987
0.000195894
0.00019579
0.000195676
0.00019555
0.000195414
0.000195266
0.000195107
0.000194935
0.000194752
0.000194556
0.000194346
0.000194123
0.000193886
0.000193634
0.000193368
0.000193086
0.000192787
0.000192471
0.000192137
0.000191784
0.000191412
0.00019102
0.000190605
0.000190169
0.000189708
0.000189221
0.000188708
0.000188168
0.000187597
0.000186995
0.000186359
0.000185688
0.000184979
0.00018423
0.000183437
0.0001826
0.000181713
0.000180775
0.000179782
0.000178729
0.000177611
0.000176426
0.000175168
0.000173832
0.000172412
0.000170903
0.000169297
0.000167587
0.000165767
0.000163828
0.000161762
0.000159559
0.000157211
0.000154706
0.000152035
0.000149188
0.000146151
0.000142915
0.000139467
0.000135795
0.000131888
0.000127735
0.000123326
0.000118649
0.000113698
0.000108466
0.000102948
9.71441e-05
9.10555e-05
8.46889e-05
7.80559e-05
7.11735e-05
6.40659e-05
5.67648e-05
4.93105e-05
4.17527e-05
3.4152e-05
2.65802e-05
1.91213e-05
1.18716e-05
4.93983e-06
-1.55305e-06
-7.47552e-06
-1.26885e-05
-1.705e-05
-2.04246e-05
-2.26952e-05
-2.37877e-05
-2.37054e-05
-2.25891e-05
-2.08227e-05
-1.9072e-05
-0.000192373
-0.000194039
-0.00019533
-0.000195952
-0.000195725
-0.000194557
-0.000192446
-0.000189445
-0.000185636
-0.000181121
-0.000176009
-0.000170409
-0.000164426
-0.000158157
-0.000151694
-0.000145114
-0.000138492
-0.000131887
-0.000125353
-0.000118933
-0.000112664
-0.000106575
-0.000100688
-9.50214e-05
-8.95845e-05
-8.43881e-05
-7.94338e-05
-7.47227e-05
-7.02528e-05
-6.60206e-05
-6.20197e-05
-5.82433e-05
-5.46834e-05
-5.13307e-05
-4.81764e-05
-4.52111e-05
-4.24244e-05
-3.9807e-05
-3.73496e-05
-3.50429e-05
-3.28776e-05
-3.08448e-05
-2.8937e-05
-2.71449e-05
-2.54624e-05
-2.3883e-05
-2.23984e-05
-2.10025e-05
-1.96903e-05
-1.84558e-05
-1.72942e-05
-1.62008e-05
-1.51707e-05
-1.41999e-05
-1.32847e-05
-1.24215e-05
-1.16069e-05
-1.0838e-05
-1.0112e-05
-9.42624e-06
-8.77817e-06
-8.1656e-06
-7.58642e-06
-7.03864e-06
-6.52055e-06
-6.03063e-06
-5.56729e-06
-5.12897e-06
-4.71434e-06
-4.32233e-06
-3.9519e-06
-3.60184e-06
-3.27109e-06
-2.95883e-06
-2.66437e-06
-2.38697e-06
-2.12582e-06
-1.88017e-06
-1.64936e-06
-1.43301e-06
-1.23071e-06
-1.04186e-06
-8.66001e-07
-7.02659e-07
-5.51531e-07
-4.12248e-07
-2.8435e-07
-1.67625e-07
-6.19865e-08
3.26208e-08
1.16417e-07
1.89974e-07
2.53702e-07
3.07459e-07
3.51012e-07
3.84455e-07
4.08085e-07
4.22126e-07
4.26602e-07
4.21367e-07
4.06311e-07
3.81493e-07
3.46997e-07
3.02774e-07
2.48712e-07
1.84708e-07
1.10652e-07
2.63799e-08
-6.83535e-08
-1.73767e-07
-2.89961e-07
-4.17032e-07
-5.5521e-07
-7.04898e-07
-8.66581e-07
-1.04059e-06
-1.22706e-06
-1.42618e-06
-1.63842e-06
-1.86452e-06
-2.10526e-06
-2.36113e-06
-2.63234e-06
-2.91935e-06
-3.22298e-06
-3.54423e-06
-3.88391e-06
-4.24274e-06
-4.62157e-06
-5.02154e-06
-5.44374e-06
-5.88908e-06
-6.35877e-06
-6.8544e-06
-7.37764e-06
-7.93006e-06
-8.51312e-06
-9.12851e-06
-9.77833e-06
-1.04646e-05
-1.11896e-05
-1.19559e-05
-1.27666e-05
-1.36248e-05
-1.45331e-05
-1.54947e-05
-1.65131e-05
-1.75922e-05
-1.87365e-05
-1.99507e-05
-2.12397e-05
-2.26091e-05
-2.40643e-05
-2.5611e-05
-2.72556e-05
-2.90049e-05
-3.08665e-05
-3.28479e-05
-3.49575e-05
-3.72037e-05
-3.95957e-05
-4.21429e-05
-4.48553e-05
-4.77432e-05
-5.08167e-05
-5.40864e-05
-5.75625e-05
-6.12555e-05
-6.51755e-05
-6.93318e-05
-7.3733e-05
-7.83865e-05
-8.32982e-05
-8.84726e-05
-9.39112e-05
-9.96127e-05
-0.000105573
-0.000111782
-0.000118228
-0.00012489
-0.000131744
-0.000138758
-0.00014589
-0.000153093
-0.000160308
-0.000167467
-0.000174494
-0.000181298
-0.000187784
-0.000193843
-0.000199363
-0.000204225
-0.000208313
-0.000211518
-0.000213752
-0.000214963
-0.000215156
-0.000214435
-0.00021301
-0.000211194
-0.000578362
-0.000580512
-0.000581907
-0.000582479
-0.00058221
-0.000581061
-0.00057905
-0.000576227
-0.000572664
-0.000568447
-0.00056367
-0.000558427
-0.000552812
-0.000546913
-0.000540812
-0.00053458
-0.000528286
-0.000521987
-0.000515734
-0.00050957
-0.00050353
-0.000497644
-0.000491935
-0.000486421
-0.000481115
-0.000476027
-0.000471162
-0.000466523
-0.000462109
-0.000457918
-0.000453947
-0.00045019
-0.000446639
-0.000443288
-0.000440129
-0.000437153
-0.000434351
-0.000431717
-0.000429237
-0.000426908
-0.000424718
-0.000422661
-0.000420727
-0.00041891
-0.000417203
-0.000415598
-0.000414089
-0.00041267
-0.000411335
-0.000410079
-0.000408896
-0.000407783
-0.000406734
-0.000405745
-0.000404814
-0.000403935
-0.000403106
-0.000402323
-0.000401584
-0.000400886
-0.000400226
-0.000399603
-0.000399014
-0.000398457
-0.000397931
-0.000397433
-0.000396962
-0.000396517
-0.000396096
-0.000395697
-0.000395321
-0.000394966
-0.000394631
-0.000394314
-0.000394016
-0.000393734
-0.000393469
-0.000393221
-0.000392987
-0.000392768
-0.000392563
-0.000392372
-0.000392193
-0.000392028
-0.000391875
-0.000391734
-0.000391605
-0.000391487
-0.00039138
-0.000391284
-0.000391199
-0.000391124
-0.00039106
-0.000391006
-0.000390962
-0.000390928
-0.000390904
-0.00039089
-0.000390885
-0.000390891
-0.000390905
-0.00039093
-0.000390965
-0.00039101
-0.000391065
-0.000391129
-0.000391204
-0.00039129
-0.000391385
-0.000391491
-0.000391609
-0.000391737
-0.000391877
-0.000392029
-0.000392192
-0.000392367
-0.000392556
-0.000392758
-0.000392973
-0.000393202
-0.000393445
-0.000393704
-0.000393979
-0.00039427
-0.000394577
-0.000394903
-0.000395247
-0.000395611
-0.000395995
-0.000396401
-0.000396829
-0.000397282
-0.000397759
-0.000398262
-0.000398793
-0.000399354
-0.000399947
-0.000400572
-0.000401233
-0.000401932
-0.00040267
-0.00040345
-0.000404275
-0.000405147
-0.000406071
-0.00040705
-0.000408087
-0.000409187
-0.000410353
-0.000411589
-0.000412901
-0.000414294
-0.000415773
-0.000417346
-0.000419017
-0.000420793
-0.000422683
-0.000424692
-0.00042683
-0.000429104
-0.000431522
-0.000434095
-0.00043683
-0.000439737
-0.000442826
-0.000446106
-0.000449587
-0.000453277
-0.000457186
-0.00046132
-0.000465688
-0.000470294
-0.000475143
-0.000480238
-0.000485577
-0.000491158
-0.000496974
-0.000503014
-0.000509264
-0.000515704
-0.000522306
-0.00052904
-0.000535864
-0.000542732
-0.000549588
-0.000556369
-0.000563002
-0.000569407
-0.000575493
-0.000581167
-0.000586327
-0.000590872
-0.000594699
-0.000597719
-0.000599853
-0.000601052
-0.0006013
-0.000600643
-0.00059911
-0.000596774
-0.00115769
-0.00116041
-0.0011621
-0.0011628
-0.00116263
-0.00116158
-0.00115971
-0.00115708
-0.00115375
-0.00114981
-0.00114534
-0.00114042
-0.00113515
-0.00112959
-0.00112382
-0.00111792
-0.00111194
-0.00110594
-0.00109997
-0.00109406
-0.00108825
-0.00108258
-0.00107706
-0.00107171
-0.00106655
-0.00106159
-0.00105684
-0.00105229
-0.00104796
-0.00104383
-0.00103991
-0.00103619
-0.00103267
-0.00102934
-0.0010262
-0.00102323
-0.00102043
-0.00101779
-0.00101531
-0.00101297
-0.00101077
-0.00100871
-0.00100676
-0.00100493
-0.00100321
-0.00100159
-0.00100006
-0.000998627
-0.000997277
-0.000996007
-0.00099481
-0.000993683
-0.000992621
-0.00099162
-0.000990676
-0.000989786
-0.000988945
-0.000988153
-0.000987404
-0.000986697
-0.000986029
-0.000985397
-0.000984801
-0.000984237
-0.000983704
-0.0009832
-0.000982723
-0.000982272
-0.000981846
-0.000981444
-0.000981063
-0.000980704
-0.000980365
-0.000980045
-0.000979743
-0.000979459
-0.000979191
-0.000978939
-0.000978703
-0.000978482
-0.000978275
-0.000978082
-0.000977902
-0.000977735
-0.00097758
-0.000977438
-0.000977307
-0.000977189
-0.000977081
-0.000976984
-0.000976898
-0.000976823
-0.000976758
-0.000976703
-0.000976659
-0.000976625
-0.0009766
-0.000976586
-0.000976581
-0.000976587
-0.000976602
-0.000976627
-0.000976662
-0.000976707
-0.000976762
-0.000976827
-0.000976903
-0.000976989
-0.000977085
-0.000977192
-0.000977311
-0.00097744
-0.000977581
-0.000977734
-0.000977899
-0.000978076
-0.000978266
-0.00097847
-0.000978687
-0.000978918
-0.000979164
-0.000979425
-0.000979703
-0.000979996
-0.000980307
-0.000980636
-0.000980984
-0.000981352
-0.000981741
-0.000982151
-0.000982584
-0.000983041
-0.000983524
-0.000984034
-0.000984572
-0.000985139
-0.000985739
-0.000986372
-0.000987041
-0.000987748
-0.000988496
-0.000989287
-0.000990123
-0.000991007
-0.000991943
-0.000992934
-0.000993984
-0.000995097
-0.000996277
-0.000997529
-0.000998857
-0.00100027
-0.00100176
-0.00100335
-0.00100504
-0.00100683
-0.00100874
-0.00101076
-0.00101291
-0.0010152
-0.00101763
-0.00102021
-0.00102295
-0.00102586
-0.00102894
-0.00103221
-0.00103568
-0.00103934
-0.00104322
-0.00104731
-0.00105162
-0.00105616
-0.00106092
-0.00106591
-0.00107113
-0.00107657
-0.00108222
-0.00108808
-0.00109412
-0.00110033
-0.00110667
-0.00111313
-0.00111965
-0.00112619
-0.0011327
-0.00113913
-0.00114539
-0.00115143
-0.00115715
-0.00116247
-0.00116731
-0.00117156
-0.00117514
-0.00117796
-0.00117994
-0.00118104
-0.00118119
-0.0011804
-0.00117855
-0.0011756
-0.00192939
-0.0019326
-0.00193459
-0.00193549
-0.00193547
-0.00193457
-0.00193288
-0.00193045
-0.00192736
-0.00192369
-0.00191951
-0.0019149
-0.00190995
-0.00190472
-0.00189928
-0.0018937
-0.00188803
-0.00188233
-0.00187663
-0.00187099
-0.00186542
-0.00185997
-0.00185465
-0.00184949
-0.00184449
-0.00183968
-0.00183505
-0.00183062
-0.00182637
-0.00182233
-0.00181848
-0.00181482
-0.00181135
-0.00180806
-0.00180495
-0.00180201
-0.00179923
-0.0017966
-0.00179413
-0.0017918
-0.0017896
-0.00178753
-0.00178559
-0.00178375
-0.00178202
-0.0017804
-0.00177887
-0.00177742
-0.00177607
-0.00177479
-0.00177358
-0.00177245
-0.00177138
-0.00177037
-0.00176942
-0.00176852
-0.00176767
-0.00176687
-0.00176612
-0.0017654
-0.00176473
-0.00176409
-0.00176349
-0.00176292
-0.00176238
-0.00176187
-0.00176139
-0.00176094
-0.00176051
-0.0017601
-0.00175972
-0.00175936
-0.00175902
-0.00175869
-0.00175839
-0.0017581
-0.00175783
-0.00175758
-0.00175734
-0.00175712
-0.00175691
-0.00175671
-0.00175653
-0.00175637
-0.00175621
-0.00175607
-0.00175593
-0.00175581
-0.00175571
-0.00175561
-0.00175552
-0.00175545
-0.00175538
-0.00175533
-0.00175528
-0.00175525
-0.00175522
-0.00175521
-0.0017552
-0.00175521
-0.00175522
-0.00175525
-0.00175528
-0.00175533
-0.00175538
-0.00175545
-0.00175553
-0.00175561
-0.00175571
-0.00175582
-0.00175594
-0.00175607
-0.00175621
-0.00175636
-0.00175653
-0.00175671
-0.0017569
-0.0017571
-0.00175732
-0.00175756
-0.0017578
-0.00175807
-0.00175835
-0.00175864
-0.00175896
-0.00175929
-0.00175964
-0.00176001
-0.0017604
-0.00176081
-0.00176125
-0.00176171
-0.0017622
-0.00176271
-0.00176325
-0.00176383
-0.00176443
-0.00176507
-0.00176575
-0.00176646
-0.00176721
-0.00176801
-0.00176885
-0.00176975
-0.00177069
-0.00177169
-0.00177275
-0.00177387
-0.00177506
-0.00177632
-0.00177766
-0.00177908
-0.00178058
-0.00178218
-0.00178387
-0.00178567
-0.00178758
-0.00178961
-0.00179177
-0.00179405
-0.00179648
-0.00179905
-0.00180178
-0.00180468
-0.00180774
-0.00181098
-0.00181441
-0.00181803
-0.00182185
-0.00182588
-0.00183011
-0.00183455
-0.00183921
-0.00184408
-0.00184916
-0.00185444
-0.00185992
-0.00186557
-0.00187139
-0.00187736
-0.00188344
-0.00188961
-0.00189582
-0.00190204
-0.00190822
-0.0019143
-0.00192021
-0.00192589
-0.00193126
-0.00193625
-0.00194077
-0.00194473
-0.00194806
-0.00195066
-0.00195247
-0.0019534
-0.0019534
-0.0019524
-0.00195022
-0.00194673
-0.00289179
-0.00289536
-0.00289762
-0.00289872
-0.00289887
-0.00289815
-0.00289664
-0.00289442
-0.00289157
-0.00288816
-0.00288427
-0.00287996
-0.00287532
-0.00287041
-0.00286529
-0.00286002
-0.00285466
-0.00284925
-0.00284383
-0.00283845
-0.00283314
-0.00282792
-0.00282281
-0.00281784
-0.00281303
-0.00280837
-0.00280389
-0.00279958
-0.00279545
-0.00279151
-0.00278775
-0.00278417
-0.00278076
-0.00277753
-0.00277446
-0.00277156
-0.00276882
-0.00276622
-0.00276377
-0.00276146
-0.00275928
-0.00275722
-0.00275528
-0.00275345
-0.00275173
-0.00275011
-0.00274858
-0.00274713
-0.00274578
-0.00274449
-0.00274329
-0.00274215
-0.00274108
-0.00274006
-0.00273911
-0.00273821
-0.00273736
-0.00273655
-0.00273579
-0.00273508
-0.0027344
-0.00273376
-0.00273315
-0.00273258
-0.00273204
-0.00273153
-0.00273105
-0.00273059
-0.00273016
-0.00272975
-0.00272936
-0.002729
-0.00272866
-0.00272833
-0.00272803
-0.00272774
-0.00272747
-0.00272721
-0.00272697
-0.00272675
-0.00272654
-0.00272634
-0.00272616
-0.00272599
-0.00272584
-0.00272569
-0.00272556
-0.00272544
-0.00272533
-0.00272523
-0.00272514
-0.00272507
-0.002725
-0.00272495
-0.0027249
-0.00272487
-0.00272484
-0.00272483
-0.00272482
-0.00272483
-0.00272484
-0.00272487
-0.00272491
-0.00272495
-0.00272501
-0.00272507
-0.00272515
-0.00272524
-0.00272533
-0.00272544
-0.00272556
-0.00272569
-0.00272583
-0.00272599
-0.00272616
-0.00272633
-0.00272653
-0.00272673
-0.00272695
-0.00272719
-0.00272744
-0.0027277
-0.00272798
-0.00272828
-0.00272859
-0.00272893
-0.00272928
-0.00272965
-0.00273005
-0.00273046
-0.0027309
-0.00273136
-0.00273185
-0.00273237
-0.00273292
-0.00273349
-0.0027341
-0.00273474
-0.00273542
-0.00273614
-0.0027369
-0.0027377
-0.00273854
-0.00273944
-0.00274039
-0.00274139
-0.00274246
-0.00274358
-0.00274477
-0.00274604
-0.00274738
-0.0027488
-0.0027503
-0.0027519
-0.00275359
-0.00275539
-0.0027573
-0.00275932
-0.00276146
-0.00276374
-0.00276615
-0.0027687
-0.0027714
-0.00277426
-0.00277729
-0.00278049
-0.00278386
-0.00278742
-0.00279117
-0.00279511
-0.00279925
-0.00280358
-0.00280811
-0.00281284
-0.00281776
-0.00282287
-0.00282815
-0.00283359
-0.00283918
-0.00284489
-0.0028507
-0.00285658
-0.00286249
-0.00286839
-0.00287424
-0.00287997
-0.00288554
-0.00289088
-0.00289592
-0.00290058
-0.0029048
-0.00290848
-0.00291155
-0.00291394
-0.00291555
-0.0029163
-0.00291611
-0.0029149
-0.00291243
-0.00290853
-0.00404266
-0.00404647
-0.00404892
-0.00405019
-0.00405051
-0.00404996
-0.00404864
-0.00404664
-0.00404402
-0.00404086
-0.00403725
-0.00403324
-0.0040289
-0.00402429
-0.00401949
-0.00401453
-0.00400947
-0.00400435
-0.00399922
-0.00399411
-0.00398905
-0.00398407
-0.00397919
-0.00397443
-0.0039698
-0.00396532
-0.00396099
-0.00395683
-0.00395283
-0.003949
-0.00394535
-0.00394186
-0.00393853
-0.00393537
-0.00393237
-0.00392953
-0.00392683
-0.00392428
-0.00392186
-0.00391958
-0.00391742
-0.00391539
-0.00391347
-0.00391165
-0.00390994
-0.00390833
-0.00390681
-0.00390538
-0.00390402
-0.00390275
-0.00390154
-0.00390041
-0.00389934
-0.00389832
-0.00389737
-0.00389647
-0.00389562
-0.00389481
-0.00389405
-0.00389334
-0.00389266
-0.00389202
-0.00389141
-0.00389084
-0.0038903
-0.00388978
-0.0038893
-0.00388884
-0.00388841
-0.003888
-0.00388761
-0.00388725
-0.0038869
-0.00388658
-0.00388627
-0.00388598
-0.00388571
-0.00388545
-0.00388522
-0.00388499
-0.00388478
-0.00388458
-0.0038844
-0.00388423
-0.00388408
-0.00388393
-0.0038838
-0.00388368
-0.00388357
-0.00388347
-0.00388338
-0.00388331
-0.00388324
-0.00388319
-0.00388314
-0.00388311
-0.00388308
-0.00388307
-0.00388306
-0.00388307
-0.00388308
-0.00388311
-0.00388314
-0.00388319
-0.00388324
-0.00388331
-0.00388339
-0.00388347
-0.00388357
-0.00388368
-0.0038838
-0.00388393
-0.00388407
-0.00388423
-0.0038844
-0.00388458
-0.00388477
-0.00388498
-0.0038852
-0.00388543
-0.00388568
-0.00388594
-0.00388623
-0.00388652
-0.00388684
-0.00388717
-0.00388753
-0.0038879
-0.0038883
-0.00388871
-0.00388915
-0.00388962
-0.00389011
-0.00389063
-0.00389117
-0.00389175
-0.00389236
-0.003893
-0.00389368
-0.0038944
-0.00389516
-0.00389596
-0.00389681
-0.00389771
-0.00389866
-0.00389966
-0.00390072
-0.00390184
-0.00390304
-0.0039043
-0.00390563
-0.00390705
-0.00390855
-0.00391014
-0.00391182
-0.00391361
-0.0039155
-0.0039175
-0.00391963
-0.00392187
-0.00392426
-0.00392677
-0.00392944
-0.00393225
-0.00393523
-0.00393836
-0.00394167
-0.00394515
-0.00394881
-0.00395265
-0.00395667
-0.00396088
-0.00396527
-0.00396984
-0.00397458
-0.0039795
-0.00398457
-0.00398979
-0.00399513
-0.00400058
-0.00400612
-0.0040117
-0.0040173
-0.00402289
-0.0040284
-0.0040338
-0.00403904
-0.00404404
-0.00404875
-0.0040531
-0.00405702
-0.00406043
-0.00406326
-0.00406542
-0.00406682
-0.00406739
-0.00406702
-0.00406563
-0.00406294
-0.00405879
-0.00537926
-0.00538318
-0.00538576
-0.00538715
-0.00538761
-0.00538723
-0.00538609
-0.00538429
-0.00538191
-0.005379
-0.00537566
-0.00537193
-0.00536789
-0.00536359
-0.00535909
-0.00535443
-0.00534968
-0.00534485
-0.00534001
-0.00533517
-0.00533037
-0.00532564
-0.00532099
-0.00531644
-0.00531202
-0.00530772
-0.00530357
-0.00529956
-0.00529571
-0.00529201
-0.00528847
-0.00528509
-0.00528186
-0.00527879
-0.00527586
-0.00527309
-0.00527045
-0.00526795
-0.00526558
-0.00526334
-0.00526122
-0.00525922
-0.00525733
-0.00525554
-0.00525385
-0.00525226
-0.00525075
-0.00524933
-0.00524799
-0.00524673
-0.00524553
-0.0052444
-0.00524334
-0.00524233
-0.00524138
-0.00524049
-0.00523964
-0.00523884
-0.00523808
-0.00523736
-0.00523669
-0.00523605
-0.00523544
-0.00523487
-0.00523433
-0.00523382
-0.00523333
-0.00523288
-0.00523244
-0.00523204
-0.00523165
-0.00523128
-0.00523094
-0.00523061
-0.00523031
-0.00523002
-0.00522975
-0.00522949
-0.00522925
-0.00522903
-0.00522882
-0.00522862
-0.00522844
-0.00522827
-0.00522811
-0.00522797
-0.00522783
-0.00522771
-0.0052276
-0.00522751
-0.00522742
-0.00522734
-0.00522728
-0.00522722
-0.00522718
-0.00522714
-0.00522712
-0.0052271
-0.0052271
-0.0052271
-0.00522712
-0.00522714
-0.00522718
-0.00522722
-0.00522728
-0.00522735
-0.00522742
-0.00522751
-0.00522761
-0.00522772
-0.00522784
-0.00522797
-0.00522811
-0.00522827
-0.00522843
-0.00522861
-0.00522881
-0.00522901
-0.00522923
-0.00522947
-0.00522972
-0.00522998
-0.00523026
-0.00523056
-0.00523088
-0.00523121
-0.00523156
-0.00523194
-0.00523233
-0.00523275
-0.00523319
-0.00523365
-0.00523414
-0.00523466
-0.00523521
-0.00523578
-0.00523639
-0.00523704
-0.00523771
-0.00523843
-0.00523919
-0.00523999
-0.00524083
-0.00524173
-0.00524267
-0.00524367
-0.00524473
-0.00524584
-0.00524703
-0.00524828
-0.00524961
-0.00525101
-0.0052525
-0.00525407
-0.00525574
-0.0052575
-0.00525937
-0.00526135
-0.00526344
-0.00526565
-0.00526799
-0.00527047
-0.00527308
-0.00527584
-0.00527874
-0.0052818
-0.00528502
-0.00528841
-0.00529196
-0.00529568
-0.00529958
-0.00530364
-0.00530788
-0.00531227
-0.00531683
-0.00532154
-0.0053264
-0.00533138
-0.00533647
-0.00534165
-0.0053469
-0.00535219
-0.00535748
-0.00536274
-0.00536793
-0.00537301
-0.00537791
-0.00538259
-0.00538698
-0.00539102
-0.00539465
-0.0053978
-0.00540038
-0.00540232
-0.00540353
-0.00540393
-0.0054034
-0.00540187
-0.00539905
-0.00539477
-0.00689841
-0.00690234
-0.00690495
-0.00690643
-0.00690701
-0.00690676
-0.0069058
-0.0069042
-0.00690203
-0.00689937
-0.00689628
-0.00689284
-0.00688909
-0.00688508
-0.00688089
-0.00687653
-0.00687208
-0.00686755
-0.00686299
-0.00685843
-0.0068539
-0.00684942
-0.00684501
-0.00684069
-0.00683647
-0.00683238
-0.00682841
-0.00682457
-0.00682087
-0.00681732
-0.00681391
-0.00681065
-0.00680753
-0.00680455
-0.00680172
-0.00679902
-0.00679646
-0.00679402
-0.00679172
-0.00678953
-0.00678745
-0.00678549
-0.00678364
-0.00678188
-0.00678022
-0.00677865
-0.00677717
-0.00677577
-0.00677445
-0.0067732
-0.00677202
-0.0067709
-0.00676985
-0.00676885
-0.00676791
-0.00676702
-0.00676618
-0.00676539
-0.00676464
-0.00676393
-0.00676325
-0.00676262
-0.00676202
-0.00676145
-0.00676091
-0.0067604
-0.00675992
-0.00675946
-0.00675903
-0.00675862
-0.00675824
-0.00675787
-0.00675753
-0.00675721
-0.0067569
-0.00675661
-0.00675634
-0.00675609
-0.00675585
-0.00675562
-0.00675541
-0.00675522
-0.00675503
-0.00675487
-0.00675471
-0.00675456
-0.00675443
-0.00675431
-0.0067542
-0.00675411
-0.00675402
-0.00675394
-0.00675388
-0.00675382
-0.00675378
-0.00675374
-0.00675372
-0.0067537
-0.0067537
-0.0067537
-0.00675372
-0.00675374
-0.00675378
-0.00675382
-0.00675388
-0.00675395
-0.00675402
-0.00675411
-0.00675421
-0.00675432
-0.00675443
-0.00675457
-0.00675471
-0.00675486
-0.00675503
-0.00675521
-0.0067554
-0.00675561
-0.00675583
-0.00675606
-0.00675631
-0.00675658
-0.00675686
-0.00675715
-0.00675747
-0.0067578
-0.00675815
-0.00675853
-0.00675892
-0.00675934
-0.00675977
-0.00676024
-0.00676073
-0.00676124
-0.00676179
-0.00676236
-0.00676297
-0.0067636
-0.00676428
-0.00676499
-0.00676574
-0.00676654
-0.00676738
-0.00676827
-0.0067692
-0.00677019
-0.00677124
-0.00677235
-0.00677352
-0.00677476
-0.00677607
-0.00677745
-0.00677892
-0.00678047
-0.00678211
-0.00678385
-0.00678569
-0.00678763
-0.00678968
-0.00679185
-0.00679414
-0.00679655
-0.0067991
-0.00680178
-0.00680461
-0.00680758
-0.00681071
-0.00681398
-0.00681742
-0.00682101
-0.00682476
-0.00682867
-0.00683273
-0.00683694
-0.0068413
-0.0068458
-0.00685042
-0.00685515
-0.00685998
-0.00686489
-0.00686985
-0.00687484
-0.00687982
-0.00688476
-0.00688963
-0.00689437
-0.00689895
-0.00690331
-0.00690739
-0.00691114
-0.00691448
-0.00691737
-0.00691971
-0.00692144
-0.00692247
-0.00692272
-0.00692207
-0.00692045
-0.00691758
-0.00691329
-0.0085965
-0.00860034
-0.00860293
-0.00860445
-0.0086051
-0.00860498
-0.00860417
-0.00860275
-0.00860079
-0.00859837
-0.00859554
-0.00859237
-0.0085889
-0.00858519
-0.00858129
-0.00857724
-0.00857308
-0.00856885
-0.00856458
-0.0085603
-0.00855603
-0.00855181
-0.00854765
-0.00854356
-0.00853957
-0.00853568
-0.0085319
-0.00852825
-0.00852472
-0.00852132
-0.00851805
-0.00851492
-0.00851192
-0.00850905
-0.00850632
-0.00850371
-0.00850123
-0.00849887
-0.00849663
-0.00849451
-0.00849249
-0.00849058
-0.00848877
-0.00848705
-0.00848543
-0.0084839
-0.00848244
-0.00848107
-0.00847977
-0.00847854
-0.00847738
-0.00847628
-0.00847524
-0.00847426
-0.00847333
-0.00847246
-0.00847162
-0.00847084
-0.0084701
-0.00846939
-0.00846873
-0.0084681
-0.0084675
-0.00846693
-0.0084664
-0.0084659
-0.00846542
-0.00846496
-0.00846454
-0.00846413
-0.00846375
-0.00846339
-0.00846305
-0.00846272
-0.00846242
-0.00846213
-0.00846186
-0.00846161
-0.00846137
-0.00846115
-0.00846094
-0.00846074
-0.00846056
-0.0084604
-0.00846024
-0.0084601
-0.00845996
-0.00845984
-0.00845974
-0.00845964
-0.00845955
-0.00845948
-0.00845941
-0.00845936
-0.00845931
-0.00845928
-0.00845925
-0.00845924
-0.00845923
-0.00845924
-0.00845925
-0.00845928
-0.00845931
-0.00845936
-0.00845941
-0.00845948
-0.00845956
-0.00845964
-0.00845974
-0.00845985
-0.00845997
-0.0084601
-0.00846024
-0.00846039
-0.00846056
-0.00846074
-0.00846093
-0.00846114
-0.00846135
-0.00846159
-0.00846184
-0.0084621
-0.00846238
-0.00846267
-0.00846299
-0.00846332
-0.00846367
-0.00846404
-0.00846443
-0.00846484
-0.00846528
-0.00846574
-0.00846623
-0.00846674
-0.00846728
-0.00846785
-0.00846845
-0.00846908
-0.00846975
-0.00847046
-0.0084712
-0.00847199
-0.00847282
-0.0084737
-0.00847462
-0.0084756
-0.00847664
-0.00847773
-0.00847888
-0.0084801
-0.00848139
-0.00848275
-0.00848419
-0.00848572
-0.00848733
-0.00848903
-0.00849082
-0.00849272
-0.00849472
-0.00849683
-0.00849906
-0.00850141
-0.00850388
-0.00850648
-0.00850922
-0.00851209
-0.00851511
-0.00851826
-0.00852156
-0.00852501
-0.00852861
-0.00853234
-0.00853622
-0.00854024
-0.00854439
-0.00854866
-0.00855304
-0.00855752
-0.00856208
-0.00856671
-0.00857137
-0.00857606
-0.00858073
-0.00858535
-0.0085899
-0.00859432
-0.00859857
-0.00860261
-0.00860639
-0.00860984
-0.00861292
-0.00861555
-0.00861767
-0.0086192
-0.00862007
-0.00862019
-0.00861946
-0.00861779
-0.00861495
-0.00861075
-0.0104695
-0.0104732
-0.0104757
-0.0104772
-0.0104779
-0.0104779
-0.0104772
-0.010476
-0.0104742
-0.010472
-0.0104695
-0.0104666
-0.0104634
-0.0104599
-0.0104563
-0.0104526
-0.0104487
-0.0104448
-0.0104408
-0.0104368
-0.0104328
-0.0104289
-0.0104249
-0.0104211
-0.0104173
-0.0104137
-0.0104101
-0.0104066
-0.0104033
-0.0104
-0.0103969
-0.0103939
-0.0103911
-0.0103883
-0.0103857
-0.0103832
-0.0103808
-0.0103785
-0.0103764
-0.0103743
-0.0103723
-0.0103705
-0.0103687
-0.0103671
-0.0103655
-0.010364
-0.0103626
-0.0103612
-0.01036
-0.0103588
-0.0103576
-0.0103565
-0.0103555
-0.0103546
-0.0103537
-0.0103528
-0.010352
-0.0103512
-0.0103505
-0.0103498
-0.0103491
-0.0103485
-0.0103479
-0.0103473
-0.0103468
-0.0103463
-0.0103458
-0.0103454
-0.010345
-0.0103446
-0.0103442
-0.0103438
-0.0103435
-0.0103432
-0.0103429
-0.0103426
-0.0103423
-0.0103421
-0.0103418
-0.0103416
-0.0103414
-0.0103412
-0.010341
-0.0103409
-0.0103407
-0.0103406
-0.0103404
-0.0103403
-0.0103402
-0.0103401
-0.01034
-0.0103399
-0.0103399
-0.0103398
-0.0103398
-0.0103397
-0.0103397
-0.0103397
-0.0103397
-0.0103397
-0.0103397
-0.0103398
-0.0103398
-0.0103398
-0.0103399
-0.01034
-0.01034
-0.0103401
-0.0103402
-0.0103403
-0.0103404
-0.0103406
-0.0103407
-0.0103409
-0.010341
-0.0103412
-0.0103414
-0.0103416
-0.0103418
-0.010342
-0.0103423
-0.0103426
-0.0103428
-0.0103431
-0.0103434
-0.0103438
-0.0103441
-0.0103445
-0.0103449
-0.0103453
-0.0103457
-0.0103462
-0.0103466
-0.0103472
-0.0103477
-0.0103483
-0.0103488
-0.0103495
-0.0103501
-0.0103508
-0.0103516
-0.0103523
-0.0103532
-0.010354
-0.0103549
-0.0103559
-0.0103569
-0.010358
-0.0103591
-0.0103603
-0.0103616
-0.0103629
-0.0103643
-0.0103658
-0.0103674
-0.010369
-0.0103708
-0.0103726
-0.0103746
-0.0103766
-0.0103788
-0.0103811
-0.0103834
-0.010386
-0.0103886
-0.0103913
-0.0103942
-0.0103973
-0.0104004
-0.0104037
-0.0104071
-0.0104107
-0.0104144
-0.0104182
-0.0104221
-0.0104262
-0.0104303
-0.0104345
-0.0104388
-0.0104431
-0.0104475
-0.0104519
-0.0104562
-0.0104606
-0.0104648
-0.0104689
-0.0104728
-0.0104765
-0.01048
-0.0104832
-0.010486
-0.0104884
-0.0104903
-0.0104916
-0.0104924
-0.0104924
-0.0104916
-0.0104899
-0.0104872
-0.0104831
-0.0125132
-0.0125167
-0.0125191
-0.0125205
-0.0125212
-0.0125213
-0.0125207
-0.0125196
-0.0125181
-0.0125161
-0.0125138
-0.0125111
-0.0125082
-0.012505
-0.0125017
-0.0124983
-0.0124947
-0.0124911
-0.0124874
-0.0124837
-0.0124799
-0.0124763
-0.0124726
-0.012469
-0.0124655
-0.012462
-0.0124586
-0.0124554
-0.0124522
-0.0124491
-0.0124462
-0.0124434
-0.0124406
-0.012438
-0.0124355
-0.0124331
-0.0124308
-0.0124286
-0.0124266
-0.0124246
-0.0124227
-0.0124209
-0.0124192
-0.0124176
-0.0124161
-0.0124146
-0.0124132
-0.0124119
-0.0124107
-0.0124095
-0.0124084
-0.0124074
-0.0124064
-0.0124054
-0.0124045
-0.0124037
-0.0124029
-0.0124021
-0.0124014
-0.0124007
-0.0124001
-0.0123995
-0.0123989
-0.0123983
-0.0123978
-0.0123973
-0.0123969
-0.0123964
-0.012396
-0.0123956
-0.0123952
-0.0123949
-0.0123945
-0.0123942
-0.0123939
-0.0123936
-0.0123934
-0.0123931
-0.0123929
-0.0123927
-0.0123925
-0.0123923
-0.0123921
-0.0123919
-0.0123918
-0.0123916
-0.0123915
-0.0123914
-0.0123913
-0.0123912
-0.0123911
-0.012391
-0.012391
-0.0123909
-0.0123909
-0.0123908
-0.0123908
-0.0123908
-0.0123908
-0.0123908
-0.0123908
-0.0123908
-0.0123909
-0.0123909
-0.012391
-0.012391
-0.0123911
-0.0123912
-0.0123913
-0.0123914
-0.0123915
-0.0123916
-0.0123918
-0.0123919
-0.0123921
-0.0123923
-0.0123925
-0.0123927
-0.0123929
-0.0123931
-0.0123934
-0.0123936
-0.0123939
-0.0123942
-0.0123945
-0.0123948
-0.0123952
-0.0123955
-0.0123959
-0.0123963
-0.0123967
-0.0123972
-0.0123977
-0.0123982
-0.0123987
-0.0123992
-0.0123998
-0.0124004
-0.0124011
-0.0124018
-0.0124025
-0.0124033
-0.0124041
-0.0124049
-0.0124058
-0.0124068
-0.0124078
-0.0124088
-0.0124099
-0.0124111
-0.0124123
-0.0124136
-0.012415
-0.0124164
-0.012418
-0.0124196
-0.0124213
-0.012423
-0.0124249
-0.0124269
-0.012429
-0.0124312
-0.0124335
-0.0124359
-0.0124384
-0.012441
-0.0124438
-0.0124467
-0.0124497
-0.0124528
-0.0124561
-0.0124594
-0.0124629
-0.0124665
-0.0124702
-0.012474
-0.0124779
-0.0124818
-0.0124859
-0.0124899
-0.012494
-0.012498
-0.0125021
-0.0125061
-0.01251
-0.0125138
-0.0125174
-0.0125208
-0.012524
-0.0125269
-0.0125294
-0.0125316
-0.0125333
-0.0125345
-0.0125351
-0.012535
-0.0125342
-0.0125326
-0.01253
-0.0125262
-0.0147229
-0.014726
-0.0147283
-0.0147297
-0.0147304
-0.0147305
-0.01473
-0.0147291
-0.0147277
-0.0147259
-0.0147238
-0.0147214
-0.0147188
-0.0147159
-0.0147129
-0.0147097
-0.0147064
-0.0147031
-0.0146997
-0.0146962
-0.0146928
-0.0146894
-0.014686
-0.0146826
-0.0146793
-0.0146761
-0.014673
-0.0146699
-0.0146669
-0.014664
-0.0146613
-0.0146586
-0.014656
-0.0146535
-0.0146511
-0.0146488
-0.0146467
-0.0146446
-0.0146426
-0.0146407
-0.0146389
-0.0146372