/*--------------------------------*- C++ -*----------------------------------*\
| =========                 |                                                 |
| \\      /  F ield         | OpenFOAM: The Open Source CFD Toolbox           |
|  \\    /   O peration     | Version:  2412                                  |
|   \\  /    A nd           | Website:  www.openfoam.com                      |
|    \\/     M anipulation  |                                                 |
\*---------------------------------------------------------------------------*/
FoamFile
{
    version     2.0;
    format      ascii;
    arch        "LSB;label=32;scalar=64";
    class       volScalarField;
    location    "800";
    object      p_rgh;
}
// * * * * * * * * * * * * * * * * * * * * * * * * * * * * * * * * * * * * * //

dimensions      [0 2 -2 0 0 0 0];

internalField   nonuniform List<scalar> 
40000
(
4.85411e-05
4.69779e-05
4.54116e-05
4.44614e-05
4.44699e-05
4.55643e-05
4.77412e-05
5.09282e-05
5.50177e-05
5.98792e-05
6.53846e-05
7.14027e-05
7.7814e-05
8.45079e-05
9.13834e-05
9.83542e-05
0.000105342
0.000112282
0.000119121
0.000125812
0.000132321
0.000138617
0.000144682
0.000150497
0.000156056
0.00016135
0.000166381
0.000171149
0.000175658
0.000179914
0.000183925
0.000187701
0.000191252
0.000194587
0.000197718
0.000200655
0.000203409
0.000205992
0.000208411
0.000210681
0.000212807
0.000214802
0.000216671
0.000218424
0.00022007
0.000221614
0.000223065
0.000224428
0.000225709
0.000226913
0.000228047
0.000229114
0.000230119
0.000231067
0.00023196
0.000232803
0.000233598
0.000234348
0.000235058
0.000235728
0.000236361
0.000236961
0.000237527
0.000238063
0.00023857
0.00023905
0.000239504
0.000239934
0.00024034
0.000240725
0.000241088
0.000241432
0.000241757
0.000242063
0.000242352
0.000242625
0.000242882
0.000243123
0.00024335
0.000243563
0.000243762
0.000243948
0.000244121
0.000244282
0.000244431
0.000244568
0.000244694
0.000244809
0.000244913
0.000245006
0.000245089
0.000245162
0.000245225
0.000245277
0.00024532
0.000245353
0.000245376
0.00024539
0.000245394
0.000245389
0.000245374
0.00024535
0.000245316
0.000245272
0.000245219
0.000245155
0.000245082
0.000244999
0.000244905
0.000244801
0.000244687
0.000244562
0.000244425
0.000244277
0.000244118
0.000243946
0.000243763
0.000243567
0.000243358
0.000243134
0.000242897
0.000242645
0.000242379
0.000242097
0.000241798
0.000241482
0.000241148
0.000240796
0.000240424
0.000240031
0.000239617
0.00023918
0.000238719
0.000238232
0.00023772
0.000237179
0.000236608
0.000236006
0.00023537
0.000234699
0.00023399
0.00023324
0.000232448
0.00023161
0.000230724
0.000229786
0.000228792
0.000227738
0.000226621
0.000225435
0.000224177
0.00022284
0.00022142
0.000219909
0.000218303
0.000216593
0.000214772
0.000212832
0.000210764
0.00020856
0.00020621
0.000203704
0.000201031
0.000198181
0.000195143
0.000191904
0.000188453
0.000184778
0.000180867
0.00017671
0.000172296
0.000167615
0.000162658
0.00015742
0.000151896
0.000146085
0.000139989
0.000133614
0.000126972
0.00012008
0.000112962
0.00010565
9.81836e-05
9.0613e-05
8.29984e-05
7.54119e-05
6.79372e-05
6.06709e-05
5.37213e-05
4.72097e-05
4.12673e-05
3.60334e-05
3.16498e-05
2.82521e-05
2.59571e-05
2.48392e-05
2.4895e-05
2.59837e-05
2.77218e-05
2.94435e-05
0.000244058
0.000242678
0.00024164
0.000241258
0.000241713
0.000243099
0.000245416
0.000248614
0.000252609
0.0002573
0.000262578
0.000268336
0.000274467
0.000280875
0.000287469
0.000294171
0.000300908
0.00030762
0.000314254
0.000320767
0.000327121
0.00033329
0.000339251
0.000344985
0.000350484
0.000355738
0.000360744
0.000365503
0.000370017
0.000374289
0.000378326
0.000382135
0.000385724
0.000389104
0.000392282
0.000395269
0.000398075
0.00040071
0.000403182
0.000405503
0.00040768
0.000409724
0.000411641
0.000413442
0.000415132
0.000416717
0.000418208
0.000419609
0.000420925
0.000422163
0.000423328
0.000424424
0.000425457
0.00042643
0.000427347
0.000428211
0.000429027
0.000429797
0.000430524
0.000431211
0.00043186
0.000432473
0.000433052
0.000433601
0.000434119
0.000434609
0.000435073
0.000435511
0.000435926
0.000436318
0.000436689
0.000437039
0.00043737
0.000437682
0.000437976
0.000438254
0.000438515
0.000438761
0.000438991
0.000439208
0.00043941
0.000439599
0.000439775
0.000439938
0.000440089
0.000440229
0.000440356
0.000440473
0.000440579
0.000440673
0.000440757
0.000440831
0.000440894
0.000440948
0.000440992
0.000441025
0.000441049
0.000441063
0.000441067
0.000441062
0.000441047
0.000441022
0.000440988
0.000440944
0.000440889
0.000440825
0.000440751
0.000440667
0.000440572
0.000440467
0.000440351
0.000440224
0.000440086
0.000439936
0.000439774
0.0004396
0.000439414
0.000439215
0.000439002
0.000438776
0.000438536
0.00043828
0.000438008
0.000437721
0.000437418
0.000437097
0.000436757
0.000436398
0.000436019
0.000435619
0.000435197
0.000434751
0.000434281
0.000433786
0.000433262
0.000432709
0.000432126
0.00043151
0.00043086
0.000430173
0.000429447
0.00042868
0.000427868
0.000427009
0.000426099
0.000425136
0.000424115
0.000423034
0.000421887
0.00042067
0.000419377
0.000418003
0.000416543
0.000414991
0.00041334
0.000411584
0.000409714
0.000407723
0.000405603
0.000403345
0.00040094
0.000398377
0.000395648
0.000392741
0.000389646
0.000386353
0.00038285
0.000379128
0.000375175
0.000370983
0.000366542
0.000361845
0.000356886
0.000351659
0.000346163
0.000340399
0.000334371
0.000328088
0.000321562
0.000314813
0.000307866
0.000300752
0.000293511
0.000286193
0.000278854
0.000271562
0.000264395
0.00025744
0.000250795
0.000244567
0.000238869
0.000233819
0.000229533
0.00022612
0.000223667
0.000222228
0.000221797
0.000222271
0.00022344
0.000224993
0.00063194
0.000630562
0.000629863
0.000629953
0.000630852
0.000632601
0.000635182
0.000638547
0.000642625
0.000647328
0.000652566
0.000658243
0.000664267
0.000670552
0.000677015
0.000683585
0.000690196
0.000696791
0.000703319
0.000709739
0.000716016
0.000722122
0.000728035
0.000733736
0.000739214
0.00074446
0.00074947
0.000754242
0.000758776
0.000763077
0.000767148
0.000770996
0.000774628
0.000778053
0.000781279
0.000784314
0.000787169
0.000789851
0.000792373
0.00079474
0.000796964
0.000799051
0.000801011
0.000802851
0.000804579
0.000806202
0.000807727
0.000809159
0.000810506
0.000811772
0.000812964
0.000814085
0.000815141
0.000816135
0.000817072
0.000817955
0.000818788
0.000819573
0.000820315
0.000821015
0.000821677
0.000822301
0.000822891
0.000823449
0.000823977
0.000824476
0.000824947
0.000825393
0.000825814
0.000826213
0.000826589
0.000826944
0.00082728
0.000827597
0.000827895
0.000828177
0.000828442
0.00082869
0.000828924
0.000829143
0.000829348
0.00082954
0.000829718
0.000829883
0.000830036
0.000830177
0.000830306
0.000830424
0.000830531
0.000830627
0.000830712
0.000830787
0.000830851
0.000830905
0.000830949
0.000830983
0.000831007
0.000831021
0.000831026
0.00083102
0.000831005
0.000830981
0.000830946
0.000830901
0.000830846
0.000830782
0.000830707
0.000830622
0.000830526
0.00083042
0.000830302
0.000830174
0.000830034
0.000829883
0.000829719
0.000829544
0.000829355
0.000829153
0.000828938
0.000828709
0.000828466
0.000828207
0.000827932
0.000827641
0.000827334
0.000827008
0.000826664
0.0008263
0.000825915
0.00082551
0.000825081
0.000824628
0.000824151
0.000823647
0.000823115
0.000822553
0.000821959
0.000821333
0.00082067
0.00081997
0.00081923
0.000818447
0.00081762
0.000816744
0.000815816
0.000814832
0.000813789
0.000812683
0.00081151
0.000810265
0.000808943
0.000807539
0.000806046
0.000804459
0.00080277
0.000800974
0.000799062
0.000797027
0.00079486
0.000792553
0.000790097
0.000787483
0.000784701
0.000781741
0.000778593
0.000775247
0.000771693
0.000767922
0.000763924
0.00075969
0.000755213
0.000750486
0.000745505
0.000740266
0.000734768
0.000729015
0.000723011
0.000716766
0.000710295
0.000703616
0.000696756
0.000689745
0.000682622
0.000675434
0.000668235
0.000661088
0.000654065
0.000647246
0.000640719
0.000634579
0.000628926
0.000623862
0.000619486
0.000615891
0.000613154
0.000611323
0.000610416
0.000610387
0.000611208
0.000612809
0.00120868
0.00120744
0.0012071
0.00120768
0.00120908
0.00121129
0.00121427
0.00121795
0.00122228
0.00122717
0.00123254
0.0012383
0.00124437
0.00125068
0.00125715
0.00126371
0.0012703
0.00127688
0.00128339
0.0012898
0.00129606
0.00130217
0.00130808
0.00131379
0.00131929
0.00132455
0.00132959
0.0013344
0.00133897
0.00134331
0.00134742
0.00135132
0.001355
0.00135847
0.00136174
0.00136483
0.00136773
0.00137046
0.00137302
0.00137543
0.0013777
0.00137983
0.00138182
0.0013837
0.00138546
0.00138712
0.00138867
0.00139013
0.0013915
0.00139279
0.00139401
0.00139515
0.00139623
0.00139724
0.00139819
0.00139909
0.00139994
0.00140074
0.00140149
0.0014022
0.00140287
0.00140351
0.00140411
0.00140467
0.00140521
0.00140571
0.00140619
0.00140664
0.00140707
0.00140747
0.00140785
0.00140821
0.00140855
0.00140887
0.00140917
0.00140946
0.00140973
0.00140998
0.00141021
0.00141044
0.00141064
0.00141084
0.00141102
0.00141118
0.00141134
0.00141148
0.00141161
0.00141173
0.00141184
0.00141193
0.00141202
0.0014121
0.00141216
0.00141221
0.00141226
0.00141229
0.00141232
0.00141233
0.00141234
0.00141233
0.00141232
0.00141229
0.00141226
0.00141221
0.00141216
0.00141209
0.00141202
0.00141193
0.00141183
0.00141173
0.00141161
0.00141148
0.00141134
0.00141118
0.00141102
0.00141084
0.00141065
0.00141045
0.00141023
0.00141
0.00140975
0.00140949
0.00140922
0.00140892
0.00140861
0.00140828
0.00140793
0.00140757
0.00140718
0.00140677
0.00140633
0.00140587
0.00140539
0.00140488
0.00140434
0.00140377
0.00140317
0.00140253
0.00140186
0.00140115
0.0014004
0.0013996
0.00139876
0.00139787
0.00139693
0.00139593
0.00139487
0.00139374
0.00139255
0.00139128
0.00138993
0.0013885
0.00138698
0.00138536
0.00138364
0.00138181
0.00137986
0.00137778
0.00137557
0.00137322
0.00137072
0.00136806
0.00136523
0.00136222
0.00135902
0.00135562
0.00135201
0.00134819
0.00134414
0.00133986
0.00133533
0.00133056
0.00132554
0.00132027
0.00131474
0.00130897
0.00130295
0.00129669
0.00129022
0.00128355
0.0012767
0.00126971
0.00126261
0.00125544
0.00124826
0.00124112
0.0012341
0.00122726
0.00122068
0.00121445
0.00120866
0.00120339
0.00119875
0.00119481
0.00119165
0.00118932
0.00118788
0.00118734
0.00118779
0.0011893
0.00196961
0.00196881
0.00196901
0.00197021
0.00197223
0.00197503
0.00197854
0.00198269
0.00198742
0.00199264
0.00199829
0.00200427
0.00201053
0.00201698
0.00202357
0.00203023
0.00203691
0.00204356
0.00205013
0.00205659
0.00206291
0.00206906
0.00207503
0.00208079
0.00208633
0.00209165
0.00209674
0.0021016
0.00210622
0.00211062
0.00211478
0.00211873
0.00212246
0.00212599
0.00212931
0.00213244
0.00213539
0.00213816
0.00214077
0.00214323
0.00214553
0.00214769
0.00214973
0.00215163
0.00215343
0.00215511
0.00215669
0.00215818
0.00215957
0.00216088
0.00216212
0.00216328
0.00216437
0.0021654
0.00216636
0.00216727
0.00216813
0.00216894
0.00216971
0.00217043
0.00217111
0.00217175
0.00217235
0.00217293
0.00217347
0.00217398
0.00217446
0.00217492
0.00217535
0.00217575
0.00217614
0.0021765
0.00217685
0.00217717
0.00217747
0.00217776
0.00217803
0.00217828
0.00217852
0.00217874
0.00217895
0.00217915
0.00217933
0.0021795
0.00217965
0.0021798
0.00217993
0.00218005
0.00218016
0.00218025
0.00218034
0.00218041
0.00218048
0.00218054
0.00218058
0.00218061
0.00218064
0.00218065
0.00218066
0.00218065
0.00218064
0.00218061
0.00218058
0.00218053
0.00218048
0.00218041
0.00218034
0.00218025
0.00218015
0.00218004
0.00217992
0.00217979
0.00217965
0.0021795
0.00217933
0.00217915
0.00217896
0.00217876
0.00217854
0.00217831
0.00217806
0.0021778
0.00217752
0.00217722
0.00217691
0.00217657
0.00217622
0.00217585
0.00217546
0.00217505
0.00217461
0.00217415
0.00217366
0.00217314
0.0021726
0.00217202
0.00217141
0.00217077
0.00217009
0.00216937
0.00216861
0.00216781
0.00216695
0.00216605
0.00216509
0.00216408
0.002163
0.00216186
0.00216065
0.00215936
0.00215799
0.00215654
0.00215499
0.00215334
0.00215159
0.00214973
0.00214775
0.00214564
0.00214339
0.002141
0.00213845
0.00213575
0.00213287
0.00212981
0.00212656
0.00212311
0.00211944
0.00211556
0.00211146
0.00210712
0.00210254
0.00209771
0.00209263
0.0020873
0.00208172
0.00207588
0.00206981
0.00206351
0.00205698
0.00205025
0.00204335
0.0020363
0.00202913
0.00202189
0.00201462
0.00200738
0.00200023
0.00199323
0.00198645
0.00197998
0.00197389
0.00196827
0.00196319
0.00195875
0.00195502
0.00195207
0.00194997
0.00194877
0.00194867
0.00194978
0.00290899
0.00290895
0.00290992
0.00291191
0.00291471
0.00291823
0.00292242
0.00292717
0.00293244
0.00293814
0.00294419
0.00295053
0.0029571
0.00296382
0.00297063
0.00297749
0.00298434
0.00299114
0.00299785
0.00300443
0.00301086
0.00301712
0.00302318
0.00302903
0.00303465
0.00304005
0.00304522
0.00305014
0.00305484
0.0030593
0.00306353
0.00306754
0.00307133
0.0030749
0.00307828
0.00308146
0.00308446
0.00308728
0.00308993
0.00309242
0.00309476
0.00309695
0.00309902
0.00310095
0.00310277
0.00310448
0.00310609
0.00310759
0.00310901
0.00311033
0.00311158
0.00311276
0.00311386
0.0031149
0.00311588
0.0031168
0.00311767
0.00311849
0.00311926
0.00311999
0.00312067
0.00312132
0.00312193
0.00312251
0.00312305
0.00312357
0.00312405
0.00312451
0.00312495
0.00312536
0.00312574
0.00312611
0.00312645
0.00312678
0.00312708
0.00312737
0.00312764
0.0031279
0.00312814
0.00312836
0.00312857
0.00312877
0.00312895
0.00312912
0.00312928
0.00312942
0.00312955
0.00312967
0.00312978
0.00312988
0.00312997
0.00313004
0.00313011
0.00313016
0.00313021
0.00313024
0.00313027
0.00313028
0.00313029
0.00313028
0.00313027
0.00313024
0.0031302
0.00313016
0.0031301
0.00313004
0.00312996
0.00312988
0.00312978
0.00312967
0.00312955
0.00312942
0.00312928
0.00312912
0.00312896
0.00312878
0.00312858
0.00312838
0.00312816
0.00312792
0.00312768
0.00312741
0.00312713
0.00312683
0.00312652
0.00312618
0.00312583
0.00312546
0.00312506
0.00312465
0.00312421
0.00312374
0.00312325
0.00312273
0.00312218
0.0031216
0.00312099
0.00312034
0.00311965
0.00311893
0.00311816
0.00311735
0.00311649
0.00311558
0.00311461
0.00311358
0.00311249
0.00311134
0.00311011
0.00310881
0.00310742
0.00310595
0.00310438
0.00310271
0.00310093
0.00309904
0.00309703
0.00309489
0.00309261
0.00309018
0.00308759
0.00308485
0.00308192
0.00307881
0.00307551
0.003072
0.00306829
0.00306435
0.00306018
0.00305577
0.00305112
0.00304622
0.00304106
0.00303566
0.00302999
0.00302407
0.00301791
0.00301151
0.00300488
0.00299804
0.00299102
0.00298384
0.00297652
0.00296912
0.00296166
0.00295421
0.0029468
0.00293952
0.00293241
0.00292555
0.00291902
0.00291289
0.00290724
0.00290215
0.00289769
0.00289396
0.00289104
0.00288901
0.00288809
0.00288847
0.00401992
0.00402096
0.00402294
0.00402592
0.00402965
0.00403405
0.00403904
0.00404455
0.00405048
0.00405678
0.00406337
0.00407018
0.00407717
0.00408426
0.0040914
0.00409855
0.00410566
0.00411268
0.00411959
0.00412636
0.00413295
0.00413936
0.00414555
0.00415152
0.00415726
0.00416277
0.00416803
0.00417305
0.00417783
0.00418236
0.00418667
0.00419074
0.00419459
0.00419823
0.00420166
0.00420489
0.00420793
0.00421079
0.00421348
0.00421601
0.00421838
0.00422061
0.0042227
0.00422467
0.00422651
0.00422824
0.00422986
0.00423138
0.00423281
0.00423415
0.00423542
0.0042366
0.00423772
0.00423876
0.00423975
0.00424068
0.00424155
0.00424238
0.00424315
0.00424388
0.00424457
0.00424523
0.00424584
0.00424642
0.00424697
0.00424748
0.00424797
0.00424843
0.00424887
0.00424928
0.00424967
0.00425004
0.00425038
0.00425071
0.00425101
0.0042513
0.00425158
0.00425183
0.00425207
0.0042523
0.00425251
0.0042527
0.00425289
0.00425305
0.00425321
0.00425336
0.00425349
0.00425361
0.00425372
0.00425382
0.0042539
0.00425398
0.00425405
0.0042541
0.00425415
0.00425418
0.00425421
0.00425422
0.00425422
0.00425422
0.0042542
0.00425418
0.00425414
0.0042541
0.00425404
0.00425398
0.0042539
0.00425381
0.00425371
0.00425361
0.00425349
0.00425336
0.00425321
0.00425306
0.00425289
0.00425271
0.00425252
0.00425231
0.00425209
0.00425186
0.00425161
0.00425134
0.00425106
0.00425076
0.00425045
0.00425011
0.00424976
0.00424938
0.00424899
0.00424857
0.00424813
0.00424766
0.00424717
0.00424664
0.00424609
0.00424551
0.0042449
0.00424424
0.00424355
0.00424283
0.00424205
0.00424124
0.00424037
0.00423945
0.00423848
0.00423744
0.00423634
0.00423518
0.00423394
0.00423262
0.00423122
0.00422973
0.00422815
0.00422646
0.00422466
0.00422275
0.00422071
0.00421854
0.00421623
0.00421377
0.00421115
0.00420836
0.00420539
0.00420223
0.00419888
0.00419532
0.00419154
0.00418754
0.0041833
0.00417882
0.00417409
0.0041691
0.00416386
0.00415835
0.00415258
0.00414655
0.00414026
0.00413372
0.00412695
0.00411995
0.00411275
0.00410536
0.00409783
0.00409018
0.00408244
0.00407467
0.00406692
0.00405923
0.00405167
0.0040443
0.00403719
0.00403041
0.00402404
0.00401815
0.00401283
0.00400816
0.00400424
0.00400115
0.00399917
0.00399847
0.00529443
0.00529684
0.00530005
0.0053042
0.00530902
0.00531445
0.00532039
0.00532676
0.00533349
0.0053405
0.00534774
0.00535513
0.00536263
0.00537019
0.00537775
0.00538526
0.0053927
0.00540002
0.00540719
0.0054142
0.005421
0.0054276
0.00543397
0.00544009
0.00544598
0.00545161
0.00545699
0.00546211
0.00546699
0.00547161
0.005476
0.00548015
0.00548406
0.00548776
0.00549125
0.00549453
0.00549762
0.00550052
0.00550325
0.00550581
0.00550821
0.00551046
0.00551258
0.00551456
0.00551642
0.00551817
0.00551981
0.00552134
0.00552279
0.00552414
0.00552541
0.0055266
0.00552772
0.00552878
0.00552977
0.0055307
0.00553158
0.00553241
0.00553319
0.00553392
0.00553461
0.00553526
0.00553588
0.00553646
0.00553701
0.00553753
0.00553802
0.00553848
0.00553891
0.00553933
0.00553971
0.00554008
0.00554043
0.00554075
0.00554106
0.00554135
0.00554162
0.00554188
0.00554212
0.00554234
0.00554255
0.00554275
0.00554293
0.0055431
0.00554326
0.0055434
0.00554353
0.00554366
0.00554376
0.00554386
0.00554395
0.00554403
0.00554409
0.00554415
0.00554419
0.00554423
0.00554425
0.00554427
0.00554427
0.00554427
0.00554425
0.00554422
0.00554419
0.00554414
0.00554409
0.00554402
0.00554395
0.00554386
0.00554376
0.00554365
0.00554353
0.0055434
0.00554326
0.0055431
0.00554294
0.00554276
0.00554256
0.00554236
0.00554214
0.0055419
0.00554165
0.00554139
0.00554111
0.00554081
0.00554049
0.00554016
0.0055398
0.00553943
0.00553903
0.00553861
0.00553817
0.0055377
0.00553721
0.00553669
0.00553614
0.00553555
0.00553494
0.00553428
0.00553359
0.00553286
0.00553209
0.00553127
0.0055304
0.00552947
0.0055285
0.00552746
0.00552635
0.00552518
0.00552393
0.00552261
0.0055212
0.0055197
0.0055181
0.0055164
0.00551458
0.00551265
0.00551059
0.0055084
0.00550606
0.00550357
0.00550091
0.00549808
0.00549507
0.00549187
0.00548847
0.00548485
0.00548101
0.00547694
0.00547263
0.00546807
0.00546325
0.00545816
0.00545281
0.00544719
0.00544129
0.00543512
0.00542867
0.00542196
0.005415
0.00540779
0.00540036
0.00539272
0.0053849
0.00537692
0.00536883
0.00536066
0.00535246
0.00534427
0.00533614
0.00532815
0.00532034
0.00531279
0.00530556
0.00529874
0.0052924
0.00528663
0.00528153
0.0052772
0.0052739
0.00527181
0.00672349
0.00672751
0.00673218
0.00673766
0.00674374
0.00675033
0.00675734
0.00676469
0.00677232
0.00678015
0.00678813
0.00679619
0.0068043
0.0068124
0.00682045
0.0068284
0.00683623
0.00684391
0.0068514
0.00685868
0.00686574
0.00687257
0.00687914
0.00688545
0.0068915
0.00689728
0.00690279
0.00690804
0.00691302
0.00691775
0.00692222
0.00692644
0.00693043
0.00693419
0.00693774
0.00694107
0.0069442
0.00694714
0.0069499
0.00695249
0.00695492
0.0069572
0.00695934
0.00696134
0.00696322
0.00696498
0.00696662
0.00696817
0.00696962
0.00697098
0.00697226
0.00697345
0.00697458
0.00697564
0.00697663
0.00697756
0.00697844
0.00697927
0.00698005
0.00698078
0.00698148
0.00698213
0.00698274
0.00698332
0.00698387
0.00698439
0.00698488
0.00698534
0.00698577
0.00698618
0.00698657
0.00698694
0.00698728
0.00698761
0.00698792
0.0069882
0.00698848
0.00698873
0.00698897
0.00698919
0.0069894
0.0069896
0.00698978
0.00698995
0.00699011
0.00699025
0.00699038
0.0069905
0.00699061
0.00699071
0.0069908
0.00699087
0.00699094
0.00699099
0.00699104
0.00699107
0.0069911
0.00699111
0.00699112
0.00699111
0.0069911
0.00699107
0.00699104
0.00699099
0.00699094
0.00699087
0.00699079
0.00699071
0.00699061
0.0069905
0.00699038
0.00699025
0.00699011
0.00698995
0.00698979
0.00698961
0.00698941
0.00698921
0.00698899
0.00698875
0.00698851
0.00698824
0.00698796
0.00698766
0.00698735
0.00698701
0.00698666
0.00698629
0.00698589
0.00698547
0.00698503
0.00698456
0.00698407
0.00698355
0.006983
0.00698242
0.0069818
0.00698115
0.00698046
0.00697973
0.00697895
0.00697813
0.00697726
0.00697634
0.00697536
0.00697432
0.00697321
0.00697204
0.00697079
0.00696945
0.00696804
0.00696653
0.00696492
0.00696321
0.00696138
0.00695943
0.00695736
0.00695514
0.00695278
0.00695026
0.00694758
0.00694472
0.00694167
0.00693842
0.00693497
0.0069313
0.00692739
0.00692325
0.00691886
0.00691421
0.0069093
0.00690411
0.00689864
0.00689288
0.00688683
0.0068805
0.00687387
0.00686696
0.00685977
0.00685231
0.0068446
0.00683665
0.00682848
0.00682013
0.00681161
0.00680296
0.00679422
0.00678544
0.00677666
0.00676793
0.00675932
0.00675088
0.00674268
0.0067348
0.00672731
0.00672029
0.00671385
0.00670808
0.00670322
0.00669948
0.00829714
0.00830299
0.00830928
0.00831626
0.00832372
0.00833159
0.00833978
0.00834822
0.00835684
0.00836558
0.00837438
0.0083832
0.00839199
0.0084007
0.0084093
0.00841775
0.00842603
0.0084341
0.00844195
0.00844956
0.00845691
0.008464
0.0084708
0.00847732
0.00848356
0.0084895
0.00849516
0.00850054
0.00850564
0.00851047
0.00851503
0.00851934
0.0085234
0.00852723
0.00853083
0.00853421
0.00853738
0.00854036
0.00854315
0.00854577
0.00854823
0.00855053
0.00855268
0.00855469
0.00855658
0.00855835
0.00856001
0.00856156
0.00856301
0.00856438
0.00856565
0.00856685
0.00856798
0.00856903
0.00857003
0.00857096
0.00857184
0.00857266
0.00857344
0.00857417
0.00857486
0.00857551
0.00857613
0.0085767
0.00857725
0.00857776
0.00857825
0.00857871
0.00857914
0.00857955
0.00857994
0.0085803
0.00858065
0.00858097
0.00858127
0.00858156
0.00858183
0.00858209
0.00858232
0.00858255
0.00858276
0.00858295
0.00858313
0.0085833
0.00858346
0.0085836
0.00858373
0.00858385
0.00858396
0.00858406
0.00858414
0.00858422
0.00858428
0.00858434
0.00858438
0.00858442
0.00858444
0.00858446
0.00858446
0.00858446
0.00858444
0.00858442
0.00858438
0.00858433
0.00858428
0.00858421
0.00858414
0.00858405
0.00858395
0.00858385
0.00858373
0.0085836
0.00858346
0.0085833
0.00858314
0.00858296
0.00858277
0.00858256
0.00858234
0.00858211
0.00858186
0.0085816
0.00858132
0.00858102
0.00858071
0.00858037
0.00858002
0.00857965
0.00857926
0.00857884
0.0085784
0.00857794
0.00857745
0.00857693
0.00857638
0.0085758
0.00857518
0.00857453
0.00857385
0.00857312
0.00857235
0.00857153
0.00857066
0.00856974
0.00856876
0.00856772
0.00856661
0.00856544
0.00856419
0.00856286
0.00856144
0.00855992
0.00855831
0.00855659
0.00855476
0.0085528
0.00855071
0.00854848
0.0085461
0.00854356
0.00854084
0.00853795
0.00853487
0.00853158
0.00852808
0.00852435
0.00852039
0.00851617
0.0085117
0.00850696
0.00850194
0.00849664
0.00849104
0.00848513
0.00847892
0.00847241
0.00846558
0.00845844
0.00845099
0.00844325
0.00843522
0.00842692
0.00841836
0.00840956
0.00840055
0.00839136
0.00838202
0.00837257
0.00836305
0.00835352
0.00834401
0.00833459
0.00832531
0.00831625
0.00830748
0.00829909
0.00829115
0.00828377
0.00827718
0.00827155
0.0100046
0.0100124
0.0100205
0.0100291
0.010038
0.0100473
0.0100568
0.0100664
0.0100761
0.0100858
0.0100955
0.0101051
0.0101146
0.010124
0.0101332
0.0101422
0.010151
0.0101595
0.0101678
0.0101757
0.0101834
0.0101908
0.0101978
0.0102046
0.010211
0.0102171
0.0102229
0.0102285
0.0102337
0.0102386
0.0102433
0.0102477
0.0102518
0.0102557
0.0102593
0.0102628
0.010266
0.010269
0.0102718
0.0102745
0.0102769
0.0102793
0.0102814
0.0102834
0.0102853
0.0102871
0.0102888
0.0102903
0.0102918
0.0102931
0.0102944
0.0102956
0.0102967
0.0102978
0.0102988
0.0102997
0.0103006
0.0103014
0.0103022
0.0103029
0.0103036
0.0103042
0.0103049
0.0103054
0.010306
0.0103065
0.010307
0.0103074
0.0103078
0.0103083
0.0103086
0.010309
0.0103093
0.0103097
0.01031
0.0103102
0.0103105
0.0103108
0.010311
0.0103112
0.0103114
0.0103116
0.0103118
0.010312
0.0103121
0.0103123
0.0103124
0.0103125
0.0103126
0.0103127
0.0103128
0.0103129
0.010313
0.010313
0.0103131
0.0103131
0.0103131
0.0103131
0.0103131
0.0103131
0.0103131
0.0103131
0.010313
0.010313
0.0103129
0.0103129
0.0103128
0.0103127
0.0103126
0.0103125
0.0103124
0.0103123
0.0103121
0.010312
0.0103118
0.0103116
0.0103114
0.0103112
0.010311
0.0103108
0.0103105
0.0103103
0.01031
0.0103097
0.0103094
0.0103091
0.0103087
0.0103083
0.010308
0.0103075
0.0103071
0.0103066
0.0103062
0.0103056
0.0103051
0.0103045
0.0103039
0.0103033
0.0103026
0.0103019
0.0103011
0.0103003
0.0102994
0.0102985
0.0102975
0.0102965
0.0102954
0.0102942
0.010293
0.0102916
0.0102902
0.0102887
0.0102871
0.0102854
0.0102835
0.0102816
0.0102795
0.0102772
0.0102748
0.0102723
0.0102695
0.0102666
0.0102635
0.0102602
0.0102566
0.0102528
0.0102488
0.0102445
0.01024
0.0102352
0.01023
0.0102246
0.0102189
0.0102128
0.0102064
0.0101997
0.0101926
0.0101853
0.0101775
0.0101695
0.0101611
0.0101524
0.0101434
0.0101341
0.0101246
0.0101148
0.0101048
0.0100946
0.0100843
0.0100739
0.0100634
0.0100529
0.0100425
0.0100322
0.010022
0.0100121
0.0100026
0.00999343
0.00998493
0.00997723
0.0118343
0.0118443
0.0118542
0.0118645
0.0118751
0.0118858
0.0118966
0.0119074
0.0119183
0.011929
0.0119397
0.0119502
0.0119605
0.0119706
0.0119804
0.01199
0.0119993
0.0120083
0.0120169
0.0120253
0.0120333
0.012041
0.0120483
0.0120553
0.0120619
0.0120682
0.0120742
0.0120799
0.0120852
0.0120903
0.012095
0.0120995
0.0121037
0.0121077
0.0121114
0.0121149
0.0121181
0.0121212
0.012124
0.0121267
0.0121292
0.0121315
0.0121337
0.0121357
0.0121376
0.0121394
0.012141
0.0121426
0.012144
0.0121454
0.0121467
0.0121478
0.012149
0.01215
0.012151
0.0121519
0.0121528
0.0121536
0.0121544
0.0121551
0.0121558
0.0121564
0.012157
0.0121576
0.0121581
0.0121586
0.0121591
0.0121595
0.01216
0.0121604
0.0121608
0.0121611
0.0121614
0.0121618
0.0121621
0.0121623
0.0121626
0.0121629
0.0121631
0.0121633
0.0121635
0.0121637
0.0121639
0.0121641
0.0121642
0.0121644
0.0121645
0.0121646
0.0121647
0.0121648
0.0121649
0.012165
0.012165
0.0121651
0.0121651
0.0121652
0.0121652
0.0121652
0.0121652
0.0121652
0.0121652
0.0121652
0.0121651
0.0121651
0.012165
0.012165
0.0121649
0.0121648
0.0121647
0.0121646
0.0121645
0.0121643
0.0121642
0.0121641
0.0121639
0.0121637
0.0121635
0.0121633
0.0121631
0.0121629
0.0121626
0.0121624
0.0121621
0.0121618
0.0121615
0.0121612
0.0121608
0.0121605
0.0121601
0.0121597
0.0121592
0.0121588
0.0121583
0.0121578
0.0121572
0.0121567
0.0121561
0.0121554
0.0121548
0.012154
0.0121533
0.0121525
0.0121516
0.0121507
0.0121497
0.0121487
0.0121476
0.0121465
0.0121452
0.0121439
0.0121425
0.012141
0.0121394
0.0121376
0.0121358
0.0121338
0.0121317
0.0121295
0.0121271
0.0121245
0.0121217
0.0121188
0.0121157
0.0121123
0.0121087
0.0121049
0.0121008
0.0120964
0.0120918
0.0120869
0.0120816
0.0120761
0.0120702
0.012064
0.0120574
0.0120505
0.0120432
0.0120356
0.0120275
0.0120191
0.0120104
0.0120013
0.0119918
0.011982
0.0119719
0.0119615
0.0119508
0.0119398
0.0119287
0.0119173
0.0119058
0.0118942
0.0118825
0.0118708
0.0118592
0.0118478
0.0118365
0.0118255
0.0118149
0.011805
0.0137741
0.0137863
0.0137982
0.0138104
0.0138226
0.0138348
0.013847
0.0138591
0.0138711
0.013883
0.0138946
0.013906
0.0139171
0.0139279
0.0139384
0.0139486
0.0139585
0.0139679
0.0139771
0.0139858
0.0139942
0.0140021
0.0140097
0.014017
0.0140238
0.0140304
0.0140365
0.0140423
0.0140478
0.014053
0.0140578
0.0140624
0.0140667
0.0140707
0.0140744
0.0140779
0.0140812
0.0140843
0.0140872
0.0140898
0.0140923
0.0140947
0.0140969
0.0140989
0.0141008
0.0141026
0.0141042
0.0141058
0.0141072
0.0141086
0.0141098
0.014111
0.0141121
0.0141132
0.0141141
0.014115
0.0141159
0.0141167
0.0141175
0.0141182
0.0141188
0.0141195
0.0141201
0.0141206
0.0141212
0.0141217
0.0141221
0.0141226
0.014123
0.0141234
0.0141238
0.0141241
0.0141245
0.0141248
0.0141251
0.0141253
0.0141256
0.0141259
0.0141261
0.0141263
0.0141265
0.0141267
0.0141269
0.014127
0.0141272
0.0141273
0.0141274
0.0141276
0.0141277
0.0141278
0.0141279
0.0141279
0.014128
0.014128
0.0141281
0.0141281
0.0141281
0.0141282
0.0141282
0.0141282
0.0141281
0.0141281
0.0141281
0.014128
0.014128
0.0141279
0.0141278
0.0141278
0.0141277
0.0141276
0.0141274
0.0141273
0.0141272
0.014127
0.0141269
0.0141267
0.0141265
0.0141263
0.0141261
0.0141259
0.0141256
0.0141254
0.0141251
0.0141248
0.0141245
0.0141242
0.0141238
0.0141235
0.0141231
0.0141227
0.0141223
0.0141218
0.0141213
0.0141208
0.0141203
0.0141197
0.0141191
0.0141185
0.0141178
0.0141171
0.0141164
0.0141156
0.0141147
0.0141138
0.0141129
0.0141119
0.0141108
0.0141096
0.0141084
0.0141071
0.0141057
0.0141042
0.0141026
0.0141009
0.014099
0.0140971
0.0140949
0.0140927
0.0140903
0.0140877
0.0140849
0.014082
0.0140788
0.0140754
0.0140718
0.0140679
0.0140638
0.0140593
0.0140546
0.0140496
0.0140443
0.0140386
0.0140326
0.0140262
0.0140194
0.0140123
0.0140048
0.0139968
0.0139885
0.0139798
0.0139706
0.0139611
0.0139511
0.0139408
0.0139301
0.013919
0.0139076
0.0138958
0.0138838
0.0138714
0.0138588
0.013846
0.0138331
0.01382
0.0138069
0.0137938
0.0137807
0.0137678
0.0137551
0.0137429
0.0158116
0.015826
0.0158399
0.0158539
0.0158678
0.0158816
0.0158952
0.0159086
0.0159218
0.0159348
0.0159474
0.0159597
0.0159717
0.0159833
0.0159945
0.0160053
0.0160157
0.0160256
0.0160352
0.0160443
0.0160531
0.0160614
0.0160692
0.0160767
0.0160838
0.0160905
0.0160968
0.0161028
0.0161084
0.0161137
0.0161186
0.0161233
0.0161276
0.0161317
0.0161355
0.016139
0.0161423
0.0161454
0.0161483
0.016151
0.0161535
0.0161559
0.016158
0.0161601
0.016162
0.0161637
0.0161654
0.0161669
0.0161683
0.0161697
0.0161709
0.0161721
0.0161732
0.0161742
0.0161752
0.0161761
0.0161769
0.0161777
0.0161785
0.0161792
0.0161798
0.0161805
0.0161811
0.0161816
0.0161821
0.0161826
0.0161831
0.0161835
0.0161839
0.0161843
0.0161847
0.016185
0.0161854
0.0161857
0.016186
0.0161862
0.0161865
0.0161867