/*--------------------------------*- C++ -*----------------------------------*\
| =========                 |                                                 |
| \\      /  F ield         | OpenFOAM: The Open Source CFD Toolbox           |
|  \\    /   O peration     | Version:  2412                                  |
|   \\  /    A nd           | Website:  www.openfoam.com                      |
|    \\/     M anipulation  |                                                 |
\*---------------------------------------------------------------------------*/
FoamFile
{
    version     2.0;
    format      ascii;
    arch        "LSB;label=32;scalar=64";
    class       surfaceScalarField;
    location    "800";
    object      phi;
}
// * * * * * * * * * * * * * * * * * * * * * * * * * * * * * * * * * * * * * //

dimensions      [0 3 -1 0 0 0 0];

oriented        oriented;

internalField   nonuniform List<scalar> 
79600
(
-9.50884e-14
9.16593e-14
-1.74145e-12
1.64601e-12
-4.86994e-12
3.12862e-12
-9.05372e-12
4.18428e-12
-1.38593e-11
4.80509e-12
-1.89207e-11
5.06153e-12
-2.39579e-11
5.03739e-12
-2.87661e-11
4.80798e-12
-3.3201e-11
4.43563e-12
-3.71699e-11
3.96864e-12
-4.06158e-11
3.44634e-12
-4.35135e-11
2.89757e-12
-4.5859e-11
2.34546e-12
-4.76654e-11
1.80665e-12
-4.89589e-11
1.29353e-12
-4.97732e-11
8.14743e-13
-5.01492e-11
3.76094e-13
-5.013e-11
-1.87985e-14
-4.9761e-11
-3.68687e-13
-4.90873e-11
-6.73428e-13
-4.81532e-11
-9.34019e-13
-4.70007e-11
-1.15246e-12
-4.56694e-11
-1.33123e-12
-4.41963e-11
-1.47331e-12
-4.2614e-11
-1.58196e-12
-4.09538e-11
-1.66065e-12
-3.92413e-11
-1.71231e-12
-3.75004e-11
-1.74084e-12
-3.57511e-11
-1.74916e-12
-3.40109e-11
-1.74031e-12
-3.2294e-11
-1.71702e-12
-3.06122e-11
-1.68181e-12
-2.89751e-11
-1.63706e-12
-2.73903e-11
-1.58501e-12
-2.58633e-11
-1.52715e-12
-2.43982e-11
-1.46513e-12
-2.29979e-11
-1.40068e-12
-2.16633e-11
-1.33438e-12
-2.03957e-11
-1.26797e-12
-1.9194e-11
-1.20129e-12
-1.80582e-11
-1.13626e-12
-1.69855e-11
-1.07195e-12
-1.59752e-11
-1.01028e-12
-1.50245e-11
-9.50784e-13
-1.41308e-11
-8.93436e-13
-1.32921e-11
-8.38957e-13
-1.25052e-11
-7.86975e-13
-1.17671e-11
-7.37653e-13
-1.10756e-11
-6.9142e-13
-1.0428e-11
-6.47938e-13
-9.8212e-12
-6.06836e-13
-9.2528e-12
-5.68262e-13
-8.72046e-12
-5.32296e-13
-8.22173e-12
-4.9869e-13
-7.75423e-12
-4.67284e-13
-7.31595e-12
-4.38121e-13
-6.9049e-12
-4.11048e-13
-6.5191e-12
-3.85832e-13
-6.15674e-12
-3.6235e-13
-5.81618e-12
-3.40558e-13
-5.49583e-12
-3.20333e-13
-5.19425e-12
-3.0155e-13
-4.91004e-12
-2.8412e-13
-4.64197e-12
-2.68002e-13
-4.38885e-12
-2.53084e-13
-4.14962e-12
-2.39255e-13
-3.92325e-12
-2.26399e-13
-3.70875e-12
-2.14481e-13
-3.50527e-12
-2.03456e-13
-3.31203e-12
-1.93238e-13
-3.1283e-12
-1.83736e-13
-2.95333e-12
-1.74927e-13
-2.78647e-12
-1.66788e-13
-2.62714e-12
-1.59288e-13
-2.47482e-12
-1.52355e-13
-2.32898e-12
-1.45895e-13
-2.18914e-12
-1.39895e-13
-2.05479e-12
-1.34315e-13
-1.92554e-12
-1.29211e-13
-1.80099e-12
-1.24501e-13
-1.68086e-12
-1.2019e-13
-1.56476e-12
-1.16185e-13
-1.45236e-12
-1.12475e-13
-1.34332e-12
-1.09035e-13
-1.23738e-12
-1.05859e-13
-1.13428e-12
-1.02978e-13
-1.03372e-12
-1.00395e-13
-9.35494e-13
-9.81351e-14
-8.39419e-13
-9.61614e-14
-7.4529e-13
-9.43413e-14
-6.52856e-13
-9.25894e-14
-5.61817e-13
-9.09703e-14
-4.71937e-13
-8.96226e-14
-3.8313e-13
-8.86066e-14
-2.95304e-13
-8.78267e-14
-2.0823e-13
-8.71445e-14
-1.21636e-13
-8.65531e-14
-3.53493e-14
-8.61627e-14
5.07493e-14
-8.60234e-14
1.36813e-13
-8.60733e-14
2.2304e-13
-8.62444e-14
3.09641e-13
-8.65432e-14
3.96801e-13
-8.70191e-14
4.84668e-13
-8.77059e-14
5.73399e-13
-8.85991e-14
6.63183e-13
-8.96873e-14
7.54226e-13
-9.09784e-14
8.46718e-13
-9.24913e-14
9.40839e-13
-9.42034e-14
1.03681e-12
-9.60585e-14
1.1349e-12
-9.80541e-14
1.23535e-12
-1.00274e-13
1.33835e-12
-1.02806e-13
1.4441e-12
-1.0566e-13
1.55284e-12
-1.08766e-13
1.66488e-12
-1.12061e-13
1.78059e-12
-1.15588e-13
1.90028e-12
-1.19465e-13
2.02426e-12
-1.23791e-13
2.15279e-12
-1.28542e-13
2.28622e-12
-1.33609e-13
2.425e-12
-1.38931e-13
2.56964e-12
-1.44616e-13
2.7206e-12
-1.50839e-13
2.87829e-12
-1.57658e-13
3.0432e-12
-1.65012e-13
3.21595e-12
-1.72853e-13
3.39722e-12
-1.81242e-13
3.58763e-12
-1.90299e-13
3.78785e-12
-2.00095e-13
3.99863e-12
-2.10662e-13
4.22084e-12
-2.22091e-13
4.45538e-12
-2.34488e-13
4.70316e-12
-2.47877e-13
4.96522e-12
-2.62235e-13
5.24272e-12
-2.77596e-13
5.53689e-12
-2.94094e-13
5.84905e-12
-3.11919e-13
6.1805e-12
-3.31203e-13
6.53275e-12
-3.52045e-13
6.90746e-12
-3.74591e-13
7.3063e-12
-3.98956e-13
7.73108e-12
-4.25131e-13
8.18379e-12
-4.53076e-13
8.66665e-12
-4.82895e-13
9.18193e-12
-5.14891e-13
9.73192e-12
-5.49393e-13
1.0319e-11
-5.86594e-13
1.09458e-11
-6.26549e-13
1.1615e-11
-6.6927e-13
1.23294e-11
-7.14761e-13
1.30919e-11
-7.6301e-13
1.39056e-11
-8.14025e-13
1.47734e-11
-8.67919e-13
1.56985e-11
-9.24845e-13
1.66835e-11
-9.84813e-13
1.77314e-11
-1.04766e-12
1.88448e-11
-1.11313e-12
2.00261e-11
-1.18097e-12
2.12772e-11
-1.25084e-12
2.25999e-11
-1.32234e-12
2.39949e-11
-1.39491e-12
2.54624e-11
-1.4677e-12
2.70017e-11
-1.53967e-12
2.86112e-11
-1.60972e-12
3.02875e-11
-1.67659e-12
3.20262e-11
-1.73884e-12
3.38208e-11
-1.79471e-12
3.56627e-11
-1.84211e-12
3.75413e-11
-1.8787e-12
3.94435e-11
-1.90203e-12
4.13531e-11
-1.90934e-12
4.3251e-11
-1.89761e-12
4.51148e-11
-1.86353e-12
4.69186e-11
-1.80358e-12
4.86332e-11
-1.71421e-12
5.02252e-11
-1.59177e-12
5.16581e-11
-1.43265e-12
5.28918e-11
-1.23341e-12
5.38827e-11
-9.90858e-13
5.45851e-11
-7.02279e-13
5.49508e-11
-3.65644e-13
5.4931e-11
1.99789e-14
5.44769e-11
4.54252e-13
5.35416e-11
9.35416e-13
5.20821e-11
1.45953e-12
5.0062e-11
2.02009e-12
4.74548e-11
2.6073e-12
4.42475e-11
3.20733e-12
4.04458e-11
3.80159e-12
3.60804e-11
4.36531e-12
3.12141e-11
4.86618e-12
2.5952e-11
5.26228e-12
2.04521e-11
5.50014e-12
1.49396e-11
5.51272e-12
9.72109e-12
5.21883e-12
5.19307e-12
4.52836e-12
1.82515e-12
3.36811e-12
7.30505e-14
1.752e-12
7.27964e-14
-1.74499e-12
1.83623e-12
-7.07964e-12
6.98157e-12
-1.55324e-11
1.15804e-11
-2.62695e-11
1.49215e-11
-3.84254e-11
1.69608e-11
-5.12254e-11
1.78615e-11
-6.40334e-11
1.78454e-11
-7.63552e-11
1.71293e-11
-8.78242e-11
1.59046e-11
-9.81856e-11
1.43301e-11
-1.07276e-10
1.25362e-11
-1.15005e-10
1.06269e-11
-1.21344e-10
8.68366e-12
-1.26307e-10
6.76975e-12
-1.29947e-10
4.93209e-12
-1.32337e-10
3.20503e-12
-1.33573e-10
1.6119e-12
-1.3376e-10
1.67935e-13
-1.3301e-10
-1.11917e-12
-1.31437e-10
-2.24712e-12
-1.29153e-10
-3.21832e-12
-1.26267e-10
-4.0381e-12
-1.22884e-10
-4.71456e-12
-1.191e-10
-5.25812e-12
-1.15002e-10
-5.67878e-12
-1.10674e-10
-5.98927e-12
-1.06185e-10
-6.20082e-12
-1.01601e-10
-6.32531e-12
-9.69758e-11
-6.3741e-12
-9.23579e-11
-6.35832e-12
-8.77871e-11
-6.28773e-12
-8.3297e-11
-6.1718e-12
-7.89148e-11
-6.01922e-12
-7.46621e-11
-5.83744e-12
-7.05556e-11
-5.63339e-12
-6.66078e-11
-5.41294e-12
-6.2827e-11
-5.18147e-12
-5.92183e-11
-4.94282e-12
-5.57844e-11
-4.7018e-12
-5.25255e-11
-4.4605e-12
-4.94397e-11
-4.2223e-12
-4.65235e-11
-3.98831e-12
-4.37729e-11
-3.76128e-12
-4.11817e-11
-3.5417e-12
-3.8744e-11
-3.33062e-12
-3.64538e-11
-3.12936e-12
-3.43035e-11
-2.93749e-12
-3.22858e-11
-2.75522e-12
-3.03938e-11
-2.58322e-12
-2.86203e-11
-2.42117e-12
-2.69581e-11
-2.26866e-12
-2.54006e-11
-2.12567e-12
-2.39411e-11
-1.99183e-12
-2.25732e-11
-1.8666e-12
-2.12907e-11
-1.74965e-12
-2.0088e-11
-1.64072e-12
-1.89596e-11
-1.53932e-12
-1.79003e-11
-1.44498e-12
-1.69052e-11
-1.35728e-12
-1.59698e-11
-1.27583e-12
-1.50898e-11
-1.2002e-12
-1.42613e-11
-1.12999e-12
-1.34806e-11
-1.06485e-12
-1.27442e-11
-1.00442e-12
-1.20487e-11
-9.48404e-13
-1.13914e-11
-8.96509e-13
-1.07693e-11
-8.48395e-13
-1.018e-11
-8.03769e-13
-9.62103e-12
-7.62392e-13
-9.09013e-12
-7.2407e-13
-8.58534e-12
-6.88573e-13
-8.10472e-12
-6.55649e-13
-7.64645e-12
-6.25099e-13
-7.20888e-12
-5.96796e-13
-6.7905e-12
-5.70627e-13
-6.38994e-12
-5.46416e-13
-6.0059e-12
-5.24008e-13
-5.63708e-12
-5.03211e-13
-5.28226e-12
-4.83953e-13
-4.94038e-12
-4.66159e-13
-4.61053e-12
-4.4984e-13
-4.29178e-12
-4.34831e-13
-3.98325e-12
-4.21032e-13
-3.68405e-12
-4.08331e-13
-3.3934e-12
-3.96661e-13
-3.11058e-12
-3.85973e-13
-2.83481e-12
-3.76171e-13
-2.5654e-12
-3.67295e-13
-2.30171e-12
-3.59419e-13
-2.04323e-12
-3.52494e-13
-1.78952e-12
-3.46371e-13
-1.53994e-12
-3.40865e-13
-1.29373e-12
-3.35945e-13
-1.05031e-12
-3.31783e-13
-8.093e-13
-3.28472e-13
-5.70295e-13
-3.25896e-13
-3.32807e-13
-3.23935e-13
-9.62971e-14
-3.226e-13
1.39761e-13
-3.2194e-13
3.75844e-13
-3.21972e-13
6.12399e-13
-3.22665e-13
8.49913e-13
-3.2398e-13
1.0889e-12
-3.25925e-13
1.32983e-12
-3.2855e-13
1.57315e-12
-3.31872e-13
1.81936e-12
-3.35872e-13
2.06904e-12
-3.40554e-13
2.32279e-12
-3.45985e-13
2.58114e-12
-3.52234e-13
2.84461e-12
-3.59287e-13
3.11375e-12
-3.67103e-13
3.38921e-12
-3.75701e-13
3.67168e-12
-3.85176e-13
3.96186e-12
-3.95651e-13
4.26044e-12
-4.07194e-13
4.5681e-12
-4.19772e-13
4.88566e-12
-4.33339e-13
5.21406e-12
-4.47952e-13
5.55427e-12
-4.63795e-13
5.90724e-12
-4.81069e-13
6.27389e-12
-4.99866e-13
6.6552e-12
-5.20158e-13
7.05239e-12
-5.41953e-13
7.46684e-12
-5.65399e-13
7.89997e-12
-5.9071e-13
8.35318e-12
-6.18056e-13
8.82794e-12
-6.47541e-13
9.32595e-12
-6.79278e-13
9.84908e-12
-7.13464e-13
1.03992e-11
-7.50328e-13
1.09784e-11
-7.90042e-13
1.1589e-11
-8.32789e-13
1.22336e-11
-8.7886e-13
1.29147e-11
-9.2859e-13
1.36352e-11
-9.82283e-13
1.4398e-11
-1.04018e-12
1.52064e-11
-1.10251e-12
1.6064e-11
-1.16965e-12
1.69746e-11
-1.24198e-12
1.79423e-11
-1.31984e-12
1.89716e-11
-1.40364e-12
2.00674e-11
-1.49395e-12
2.12344e-11
-1.59135e-12
2.24778e-11
-1.69621e-12
2.38033e-11
-1.80874e-12
2.5217e-11
-1.92926e-12
2.67253e-11
-2.05835e-12
2.8335e-11
-2.19657e-12
3.0053e-11
-2.3444e-12
3.18866e-11
-2.50226e-12
3.38433e-11
-2.67059e-12
3.59306e-11
-2.84963e-12
3.81563e-11
-3.03943e-12
4.05281e-11
-3.23994e-12
4.30541e-11
-3.45111e-12
4.57417e-11
-3.67274e-12
4.85981e-11
-3.9044e-12
5.16298e-11
-4.1453e-12
5.48427e-11
-4.39433e-12
5.82415e-11
-4.64999e-12
6.18297e-11
-4.9105e-12
6.56089e-11
-5.17366e-12
6.95785e-11
-5.43661e-12
7.37354e-11
-5.69579e-12
7.80732e-11
-5.94699e-12
8.25823e-11
-6.18521e-12
8.72486e-11
-6.40472e-12
9.20534e-11
-6.59904e-12
9.69721e-11
-6.76063e-12
1.01974e-10
-6.88093e-12
1.07023e-10
-6.95063e-12
1.12073e-10
-6.95945e-12
1.17071e-10
-6.89635e-12
1.21957e-10
-6.74959e-12
1.2666e-10
-6.50666e-12
1.311e-10
-6.15484e-12
1.3519e-10
-5.68134e-12
1.3883e-10
-5.07358e-12
1.41917e-10
-4.31986e-12
1.44335e-10
-3.40974e-12
1.45968e-10
-2.33476e-12
1.46691e-10
-1.08921e-12
1.46382e-10
3.28771e-13
1.4492e-10
1.91603e-12
1.42193e-10
3.6633e-12
1.38098e-10
5.5536e-12
1.32558e-10
7.56045e-12
1.2552e-10
9.64566e-12
1.1697e-10
1.17569e-11
1.06947e-10
1.38248e-11
9.5553e-11
1.57598e-11
8.29706e-11
1.74485e-11
6.94837e-11
1.87491e-11
5.54954e-11
1.94884e-11
4.15479e-11
1.94601e-11
2.83353e-11
1.84312e-11
1.66983e-11
1.61653e-11
7.57235e-12
1.24944e-11
1.8458e-12
7.47914e-12
1.91853e-12
-3.39711e-12
5.23368e-12
-1.21789e-11
1.57622e-11
-2.51606e-11
2.45621e-11
-4.11654e-11
3.09263e-11
-5.90649e-11
3.48604e-11
-7.78494e-11
3.66463e-11
-9.66671e-11
3.66635e-11
-1.14835e-10
3.52969e-11
-1.31828e-10
3.28985e-11
-1.47271e-10
2.97721e-11
-1.60908e-10
2.61736e-11
-1.72592e-10
2.23106e-11
-1.82259e-10
1.83512e-11
-1.89916e-10
1.44266e-11
-1.95621e-10
1.06371e-11
-1.99474e-10
7.05773e-12
-2.01602e-10
3.74027e-12
-2.02153e-10
7.19403e-13
-2.01286e-10
-1.98551e-12
-1.99166e-10
-4.36703e-12
-1.95957e-10
-6.42734e-12
-1.91819e-10
-8.17581e-12
-1.86906e-10
-9.6272e-12
-1.81363e-10
-1.08013e-11
-1.75323e-10
-1.17192e-11
-1.68908e-10
-1.24047e-11
-1.62227e-10
-1.28816e-11
-1.55378e-10
-1.31741e-11
-1.48447e-10
-1.33059e-11
-1.41506e-10
-1.32991e-11
-1.34619e-10
-1.31749e-11
-1.27838e-10
-1.29531e-11
-1.21206e-10
-1.26513e-11
-1.14758e-10
-1.22857e-11
-1.08521e-10
-1.18707e-11
-1.02515e-10
-1.14196e-11
-9.67537e-11
-1.09421e-11
-9.12482e-11
-1.04491e-11
-8.60019e-11
-9.9478e-12
-8.10172e-11
-9.44539e-12
-7.62915e-11
-8.94741e-12
-7.18217e-11
-8.45857e-12
-6.7601e-11
-7.98199e-12
-6.36217e-11
-7.5208e-12
-5.98756e-11
-7.07723e-12
-5.63525e-11
-6.65237e-12
-5.30423e-11
-6.24741e-12
-4.99347e-11
-5.86311e-12
-4.70189e-11
-5.49943e-12
-4.4284e-11
-5.15607e-12
-4.17195e-11
-4.833e-12
-3.93154e-11
-4.52978e-12
-3.70614e-11
-4.24566e-12
-3.49481e-11
-3.97986e-12
-3.29662e-11
-3.73164e-12
-3.1107e-11
-3.50013e-12
-2.9362e-11
-3.28442e-12
-2.77234e-11
-3.08364e-12
-2.61838e-11
-2.89693e-12
-2.47363e-11
-2.7234e-12
-2.33742e-11
-2.56223e-12
-2.20916e-11
-2.41263e-12
-2.08827e-11
-2.27383e-12
-1.97423e-11
-2.14503e-12
-1.86653e-11
-2.02555e-12
-1.76471e-11
-1.91476e-12
-1.66836e-11
-1.81206e-12
-1.57706e-11
-1.71681e-12
-1.49046e-11
-1.62848e-12
-1.40821e-11
-1.54661e-12
-1.33e-11
-1.47077e-12
-1.25552e-11
-1.40051e-12
-1.18452e-11
-1.33535e-12
-1.11672e-11
-1.27495e-12
-1.0519e-11
-1.21896e-12
-9.89835e-12
-1.16717e-12
-9.30318e-12
-1.11924e-12
-8.73165e-12
-1.0749e-12
-8.18192e-12
-1.03386e-12
-7.65235e-12
-9.95924e-13
-7.14137e-12
-9.60948e-13
-6.64752e-12
-9.28735e-13
-6.16944e-12
-8.99098e-13
-5.70581e-12
-8.71893e-13
-5.25542e-12
-8.46999e-13
-4.81715e-12
-8.24302e-13
-4.38996e-12
-8.03639e-13
-3.97279e-12
-7.84833e-13
-3.56453e-12
-7.67837e-13
-3.16419e-12
-7.52701e-13
-2.77097e-12
-7.39386e-13
-2.38407e-12
-7.27721e-13
-2.00266e-12
-7.17549e-13
-1.62579e-12
-7.08842e-13
-1.2526e-12
-7.01652e-13
-8.8238e-13
-6.96006e-13
-5.14476e-13
-6.9185e-13
-1.48132e-13
-6.89091e-13
2.17482e-13
-6.87686e-13
5.83157e-13
-6.87662e-13
9.49611e-13
-6.89057e-13
1.31755e-12
-6.91862e-13
1.68773e-12
-6.9608e-13
2.06092e-12
-7.01747e-13
2.43787e-12
-7.08895e-13
2.81933e-12
-7.17523e-13
3.20612e-12
-7.27623e-13
3.59911e-12
-7.39227e-13
3.99926e-12
-7.52434e-13
4.40744e-12
-7.67353e-13
4.82448e-12
-7.84056e-13
5.2513e-12
-8.02576e-13
5.68891e-12
-8.22943e-13
6.13843e-12
-8.45261e-13
6.60105e-12
-8.69703e-13
7.0779e-12
-8.96436e-13
7.57015e-12
-9.25551e-13
8.07908e-12
-9.57101e-13
8.60613e-12
-9.91183e-13
9.15292e-12
-1.02802e-12
9.72105e-12
-1.0679e-12
1.03121e-11
-1.1111e-12
1.09278e-11
-1.15774e-12
1.15701e-11
-1.20798e-12
1.22413e-11
-1.26208e-12
1.29436e-11
-1.32039e-12
1.36794e-11
-1.38328e-12
1.44513e-11
-1.45108e-12
1.5262e-11
-1.52413e-12
1.61146e-11
-1.6029e-12
1.70123e-11
-1.68784e-12
1.79585e-11
-1.77934e-12
1.89571e-11
-1.87784e-12
2.00122e-11
-1.98393e-12
2.11283e-11
-2.0983e-12
2.23099e-11
-2.22164e-12
2.35622e-11
-2.35458e-12
2.48904e-11
-2.49784e-12
2.63006e-11
-2.65225e-12
2.77988e-11
-2.81854e-12
2.93919e-11
-2.9974e-12
3.10872e-11
-3.1897e-12
3.28924e-11
-3.39652e-12
3.48157e-11
-3.61898e-12
3.68656e-11
-3.85801e-12
3.90511e-11
-4.11447e-12
4.1382e-11
-4.38925e-12
4.38683e-11
-4.68326e-12
4.65205e-11
-4.99732e-12
4.93498e-11
-5.33219e-12
5.23673e-11
-5.68857e-12
5.55848e-11
-6.06705e-12
5.90136e-11
-6.46803e-12
6.26653e-11
-6.89151e-12
6.65515e-11
-7.33714e-12
7.06831e-11
-7.80422e-12
7.50706e-11
-8.29167e-12
7.97234e-11
-8.79783e-12
8.46495e-11
-9.3203e-12
8.98551e-11
-9.85588e-12
9.53445e-11
-1.04004e-11
1.01119e-10
-1.09487e-11
1.07177e-10
-1.14947e-11
1.13512e-10
-1.20309e-11
1.20112e-10
-1.25481e-11
1.26963e-10
-1.30358e-11
1.34039e-10
-1.34818e-11
1.41312e-10
-1.38719e-11
1.48742e-10
-1.41904e-11
1.56281e-10
-1.44196e-11
1.6387e-10
-1.45396e-11
1.7144e-10
-1.45292e-11
1.78909e-10
-1.43651e-11
1.86183e-10
-1.4023e-11
1.93154e-10
-1.34773e-11
1.99701e-10
-1.2702e-11
2.05691e-10
-1.16711e-11
2.10977e-10
-1.03593e-11
2.154e-10
-8.74361e-12
2.18794e-10
-6.80372e-12
2.20984e-10
-4.5241e-12
2.2179e-10
-1.89538e-12
2.21035e-10
1.08372e-12
2.18547e-10
4.40369e-12
2.14169e-10
8.04184e-12
2.07763e-10
1.19592e-11
1.99227e-10
1.60968e-11
1.885e-10
2.03721e-11
1.75583e-10
2.46739e-11
1.6055e-10
2.88576e-11
1.4357e-10
3.27399e-11
1.24926e-10
3.60927e-11
1.05036e-10
3.86386e-11
8.44775e-11
4.00476e-11
6.39978e-11
3.99401e-11
4.45258e-11
3.79032e-11
2.71569e-11
3.35339e-11
1.31086e-11
2.65424e-11
3.64054e-12
1.69474e-11
5.55913e-12
-4.69068e-12
9.92463e-12
-1.62755e-11
2.73472e-11
-3.29217e-11
4.12085e-11
-5.31038e-11
5.11081e-11
-7.5477e-11
5.7234e-11
-9.88721e-11
6.00418e-11
-1.22302e-10
6.00936e-11
-1.44963e-10
5.79582e-11
-1.66228e-10
5.41641e-11
-1.85634e-10
4.91782e-11
-2.02861e-10
4.33996e-11
-2.1771e-10
3.71601e-11
-2.30089e-10
3.07306e-11
-2.39989e-10
2.43268e-11
-2.47468e-10
1.81161e-11
-2.52635e-10
1.22246e-11
-2.55637e-10
6.74273e-12
-2.5665e-10
1.73182e-12
-2.55863e-10
-2.77227e-12
-2.53477e-10
-6.75331e-12
-2.49693e-10
-1.0211e-11
-2.4471e-10
-1.31591e-11
-2.38719e-10
-1.56187e-11
-2.319e-10
-1.762e-11
-2.24422e-10
-1.91969e-11
-2.1644e-10
-2.03871e-11
-2.08092e-10
-2.12291e-11
-1.99504e-10
-2.17621e-11
-1.90785e-10
-2.20245e-11
-1.82031e-10
-2.20531e-11
-1.73324e-10
-2.18827e-11
-1.64731e-10
-2.15459e-11
-1.5631e-10
-2.10721e-11
-1.48107e-10
-2.04885e-11
-1.40159e-10
-1.98192e-11
-1.32493e-10
-1.90854e-11
-1.25129e-10
-1.83058e-11
-1.18082e-10
-1.7497e-11
-1.11358e-10
-1.66717e-11
-1.04961e-10
-1.58426e-11
-9.88899e-11
-1.50183e-11
-9.31409e-11
-1.42075e-11
-8.77072e-11
-1.34158e-11
-8.25795e-11
-1.26482e-11
-7.77476e-11
-1.1909e-11
-7.32e-11
-1.12001e-11
-6.8924e-11
-1.05235e-11
-6.49065e-11
-9.88054e-12
-6.11341e-11
-9.27156e-12
-5.75939e-11
-8.69636e-12
-5.42724e-11
-8.15462e-12
-5.11567e-11
-7.64554e-12
-4.8234e-11
-7.16814e-12
-4.54924e-11
-6.72136e-12
-4.29201e-11
-6.3039e-12
-4.0506e-11
-5.91428e-12
-3.82393e-11
-5.55106e-12
-3.61101e-11
-5.21285e-12
-3.41089e-11
-4.89819e-12
-3.22268e-11
-4.6056e-12
-3.04553e-11
-4.33372e-12
-2.87867e-11
-4.08125e-12
-2.72136e-11
-3.84693e-12
-2.57292e-11
-3.62948e-12
-2.43271e-11
-3.42772e-12
-2.30014e-11
-3.24054e-12
-2.17465e-11
-3.06695e-12
-2.05573e-11
-2.90598e-12
-1.94293e-11
-2.7567e-12
-1.83577e-11
-2.61827e-12
-1.73386e-11
-2.48995e-12
-1.63681e-11
-2.37102e-12
-1.54426e-11
-2.2608e-12
-1.4559e-11
-2.15864e-12
-1.37141e-11
-2.06396e-12
-1.29051e-11
-1.97625e-12
-1.21292e-11
-1.89506e-12
-1.13841e-11
-1.81998e-12
-1.06673e-11
-1.75054e-12
-9.97691e-12
-1.68644e-12
-9.3107e-12
-1.62726e-12
-8.66682e-12
-1.57272e-12
-8.0435e-12
-1.52253e-12
-7.43901e-12
-1.4764e-12
-6.85177e-12
-1.43415e-12
-6.28023e-12
-1.39562e-12
-5.72304e-12
-1.36065e-12
-5.17896e-12
-1.32899e-12
-4.64665e-12
-1.30039e-12
-4.12477e-12
-1.27474e-12
-3.61207e-12
-1.252e-12
-3.10747e-12
-1.23211e-12
-2.60997e-12
-1.21494e-12
-2.11849e-12
-1.20035e-12
-1.6319e-12
-1.18825e-12
-1.14919e-12
-1.17865e-12
-6.69397e-13
-1.17156e-12
-1.91594e-13
-1.1669e-12
2.85217e-13
-1.16458e-12
7.6206e-13
-1.16459e-12
1.23993e-12
-1.16695e-12
1.71975e-12
-1.1717e-12
2.20247e-12
-1.17885e-12
2.68911e-12
-1.18842e-12
3.18068e-12
-1.20046e-12
3.67823e-12
-1.21503e-12
4.18274e-12
-1.23219e-12
4.6953e-12
-1.25196e-12
5.2171e-12
-1.27438e-12
5.74934e-12
-1.29962e-12
6.29318e-12
-1.32784e-12
6.84986e-12
-1.35919e-12
7.42061e-12
-1.39377e-12
8.00682e-12
-1.43167e-12
8.61002e-12
-1.47304e-12
9.23181e-12
-1.51814e-12
9.8738e-12
-1.56726e-12
1.05376e-11
-1.62067e-12
1.1225e-11
-1.67854e-12
1.1938e-11
-1.74107e-12
1.26787e-11
-1.80861e-12
1.34493e-11
-1.88161e-12
1.42521e-11
-1.96049e-12
1.50897e-11
-2.04556e-12
1.59648e-11
-2.13723e-12
1.68803e-11
-2.23598e-12
1.78395e-11
-2.34244e-12
1.88456e-11
-2.45718e-12
1.99022e-11
-2.58078e-12
2.10132e-11
-2.71395e-12
2.2183e-11
-2.8575e-12
2.3416e-11
-3.01222e-12
2.4717e-11
-3.17892e-12
2.60913e-11
-3.35846e-12
2.75447e-11
-3.55185e-12
2.90832e-11
-3.76021e-12
3.07132e-11
-3.9847e-12
3.24419e-11
-4.22651e-12
3.42768e-11
-4.48697e-12
3.6226e-11
-4.76748e-12
3.82981e-11
-5.06943e-12
4.05021e-11
-5.39414e-12
4.2848e-11
-5.74303e-12
4.53464e-11
-6.11774e-12
4.80083e-11
-6.51997e-12
5.08454e-11
-6.95133e-12
5.38698e-11
-7.41335e-12
5.70944e-11
-7.9075e-12
6.05325e-11
-8.4352e-12
6.41979e-11
-8.99762e-12
6.81048e-11
-9.59571e-12
7.22677e-11
-1.02302e-11
7.67011e-11
-1.09016e-11
8.14194e-11
-1.161e-11
8.64367e-11
-1.23546e-11
9.17664e-11
-1.31342e-11
9.74211e-11
-1.39467e-11
1.03412e-10
-1.47889e-11
1.09749e-10
-1.56568e-11
1.16438e-10
-1.65449e-11
1.23484e-10
-1.74461e-11
1.30887e-10
-1.83514e-11
1.38643e-10
-1.92504e-11
1.46742e-10
-2.01299e-11
1.55169e-10
-2.09748e-11
1.639e-10
-2.17672e-11
1.72905e-10
-2.24864e-11
1.82141e-10
-2.31088e-11
1.91558e-10
-2.36078e-11
2.01093e-10
-2.39538e-11
2.10667e-10
-2.41142e-11
2.20191e-10
-2.40534e-11
2.29559e-10
-2.37334e-11
2.3865e-10
-2.31139e-11
2.47326e-10
-2.21533e-11
2.55433e-10
-2.08094e-11
2.62802e-10
-1.90402e-11
2.69249e-10
-1.68057e-11
2.74574e-10
-1.40693e-11
2.7857e-10
-1.08001e-11
2.81021e-10
-6.97497e-12
2.81708e-10
-2.5818e-12
2.80414e-10
2.37772e-12
2.76934e-10
7.88388e-12
2.71081e-10
1.38949e-11
2.62698e-10
2.03418e-11
2.51672e-10
2.71232e-11
2.37944e-10
3.40994e-11
2.21533e-10
4.10854e-11
2.02546e-10
4.78439e-11
1.81208e-10
5.40784e-11
1.57874e-10
5.94265e-11
1.33058e-10
6.34544e-11
1.07449e-10
6.56567e-11
8.19256e-11
6.54634e-11
5.75646e-11
6.22645e-11
3.56341e-11
5.54645e-11
1.75848e-11
4.45915e-11
5.05493e-12
2.94772e-11
1.06142e-11
-5.59606e-12
1.55206e-11
-1.92546e-11
4.10058e-11
-3.86668e-11
6.06206e-11
-6.20062e-11
7.44475e-11
-8.77443e-11
8.29717e-11
-1.14589e-10
8.68867e-11
-1.41461e-10
8.69658e-11
-1.67481e-10
8.39783e-11
-1.91957e-10
7.86396e-11
-2.14366e-10
7.15884e-11
-2.34344e-10
6.33769e-11
-2.51656e-10
5.44721e-11
-2.66183e-10
4.52578e-11
-2.77902e-10
3.60448e-11
-2.86863e-10
2.70769e-11
-2.93178e-10
1.85398e-11
-2.97005e-10
1.05695e-11
-2.98532e-10
3.2589e-12
-2.97969e-10
-3.33437e-12
-2.9554e-10
-9.18245e-12
-2.91471e-10
-1.42807e-11
-2.85986e-10
-1.86442e-11
-2.79303e-10
-2.23018e-11
-2.71629e-10
-2.5294e-11
-2.63158e-10
-2.76679e-11
-2.54069e-10
-2.94762e-11
-2.44524e-10
-3.07738e-11
-2.3467e-10
-3.16168e-11
-2.24634e-10
-3.20601e-11
-2.1453e-10
-3.21569e-11
-2.04455e-10
-3.1958e-11
-1.94491e-10
-3.15099e-11
-1.84706e-10
-3.08571e-11
-1.75156e-10
-3.00381e-11
-1.65887e-10
-2.90888e-11
-1.56932e-10
-2.80406e-11
-1.48317e-10
-2.69211e-11
-1.40059e-10
-2.57542e-11
-1.32171e-10
-2.45605e-11
-1.24656e-10
-2.33571e-11
-1.17516e-10
-2.21587e-11
-1.10746e-10
-2.09767e-11
-1.04341e-10
-1.98209e-11
-9.82912e-11
-1.86987e-11
-9.25841e-11
-1.76156e-11
-8.72077e-11
-1.65762e-11
-8.21484e-11
-1.55832e-11
-7.73909e-11
-1.46382e-11
-7.29203e-11
-1.3742e-11
-6.87215e-11
-1.2895e-11
-6.47796e-11
-1.20967e-11
-6.10793e-11
-1.13458e-11
-5.76063e-11
-1.06411e-11
-5.43465e-11
-9.98122e-12
-5.12863e-11
-9.36414e-12
-4.84127e-11
-8.78789e-12
-4.57134e-11
-8.25043e-12
-4.31765e-11
-7.7497e-12
-4.07911e-11
-7.28359e-12
-3.85467e-11
-6.85003e-12
-3.64335e-11
-6.44701e-12
-3.44423e-11
-6.07258e-12
-3.25645e-11
-5.72488e-12
-3.07919e-11
-5.40211e-12
-2.91171e-11
-5.10255e-12
-2.75332e-11
-4.82457e-12
-2.60335e-11
-4.56666e-12
-2.4612e-11
-4.32745e-12
-2.32632e-11
-4.10562e-12
-2.19817e-11
-3.89987e-12
-2.07628e-11
-3.70906e-12
-1.96017e-11
-3.53213e-12
-1.84944e-11
-3.36813e-12
-1.74369e-11
-3.21613e-12
-1.64257e-11
-3.07528e-12
-1.54573e-11
-2.9448e-12
-1.45285e-11
-2.82394e-12
-1.36364e-11
-2.71211e-12
-1.27782e-11
-2.60873e-12
-1.19513e-11
-2.51325e-12
-1.11534e-11
-2.42513e-12
-1.03822e-11
-2.34392e-12
-9.63554e-12
-2.26921e-12
-8.91146e-12
-2.20059e-12
-8.20805e-12
-2.1377e-12
-7.52345e-12
-2.08024e-12
-6.85592e-12
-2.02801e-12
-6.20393e-12
-1.98081e-12
-5.56603e-12
-1.93832e-12
-4.94069e-12
-1.90022e-12
-4.32642e-12
-1.86635e-12
-3.72183e-12
-1.83666e-12
-3.12565e-12
-1.81104e-12
-2.53663e-12
-1.78933e-12
-1.95353e-12
-1.77139e-12
-1.3751e-12
-1.75713e-12
-8.00147e-13
-1.74653e-12
-2.27499e-13
-1.73953e-12
3.43979e-13
-1.73607e-12
9.15461e-13
-1.73613e-12
1.48814e-12
-1.73969e-12
2.06317e-12
-1.74681e-12
2.64169e-12
-1.75751e-12
3.22488e-12
-1.7718e-12
3.81396e-12
-1.78972e-12
4.4102e-12
-1.81138e-12
5.01483e-12
-1.83689e-12
5.62915e-12
-1.86635e-12
6.25449e-12
-1.89984e-12
6.89224e-12
-1.93751e-12
7.54386e-12
-1.97954e-12
8.21086e-12
-2.02616e-12
8.8948e-12
-2.07764e-12
9.59728e-12
-2.13416e-12
1.032e-11
-2.19591e-12
1.10649e-11
-2.26315e-12
1.18338e-11
-2.33625e-12
1.2629e-11
-2.41566e-12
1.34525e-11
-2.50179e-12
1.43065e-11
-2.595e-12
1.51935e-11
-2.69569e-12
1.61163e-11
-2.8044e-12
1.70777e-11
-2.92174e-12
1.80806e-11
-3.04832e-12
1.91283e-11
-3.18479e-12
2.02242e-11
-3.33184e-12
2.13721e-11
-3.49031e-12
2.25761e-11
-3.6611e-12
2.38403e-11
-3.84509e-12
2.51694e-11
-4.04324e-12
2.65684e-11
-4.25667e-12
2.80428e-11
-4.4866e-12
2.95983e-11
-4.73434e-12
3.1241e-11
-5.00123e-12
3.29778e-11
-5.28866e-12
3.48157e-11
-5.59824e-12
3.67625e-11
-5.93169e-12
3.88263e-11
-6.29073e-12
4.10161e-11
-6.67715e-12
4.33416e-11
-7.09298e-12
4.58128e-11
-7.54041e-12
4.84405e-11
-8.02162e-12
5.12362e-11
-8.53868e-12
5.4212e-11
-9.09375e-12
5.73809e-11
-9.68916e-12
6.07565e-11
-1.03272e-11
6.4353e-11
-1.10101e-11
6.81854e-11
-1.174e-11
7.22691e-11
-1.25188e-11
7.662e-11
-1.33483e-11
8.12544e-11
-1.42299e-11
8.61888e-11
-1.51645e-11
9.14396e-11
-1.61525e-11
9.70233e-11
-1.71937e-11
1.02956e-10
-1.8287e-11
1.09252e-10
-1.94305e-11
1.15926e-10
-2.06206e-11
1.22989e-10
-2.18525e-11
1.30452e-10
-2.31198e-11
1.38321e-10
-2.44141e-11
1.466e-10
-2.57248e-11
1.55287e-10
-2.70386e-11
1.64376e-10
-2.83393e-11
1.73853e-10
-2.96077e-11
1.83699e-10
-3.08209e-11
1.93885e-10
-3.19526e-11
2.04371e-10
-3.29721e-11
2.15107e-10
-3.38446e-11
2.2603e-10
-3.45312e-11
2.37064e-10
-3.49882e-11
2.48118e-10
-3.51681e-11
2.59084e-10
-3.50192e-11
2.69837e-10
-3.44863e-11
2.80235e-10
-3.35114e-11
2.90116e-10
-3.20347e-11
2.99302e-10
-2.99956e-11
3.07597e-10
-2.7335e-11
3.14788e-10
-2.39965e-11
3.20648e-10
-1.99295e-11
3.2494e-10
-1.50919e-11
3.27419e-10
-9.45381e-12
3.27839e-10
-3.00166e-12
3.25959e-10
4.25732e-12
3.21553e-10
1.22896e-11
3.14419e-10
2.10292e-11
3.04389e-10
3.03712e-11
2.91349e-10
4.01638e-11
2.75247e-10
5.02011e-11
2.56119e-10
6.02139e-11
2.34101e-10
6.98614e-11
2.09457e-10
7.87225e-11
1.82595e-10
8.62888e-11
1.5409e-10
9.19598e-11
1.24702e-10
9.50444e-11
9.53939e-11
9.47714e-11
6.73417e-11
9.03169e-11
4.19469e-11
8.08596e-11
2.08613e-11
6.5677e-11
6.0522e-12
4.42861e-11
1.66664e-11
-6.16169e-12
2.16821e-11
-2.12032e-11
5.60476e-11
-4.25201e-11
8.19384e-11
-6.80666e-11
9.99942e-11
-9.61694e-11
1.11075e-10
-1.25444e-10
1.16161e-10
-1.54746e-10
1.16268e-10
-1.83148e-10
1.1238e-10
-2.09916e-10
1.05408e-10
-2.34495e-10
9.61675e-11
-2.56487e-10
8.53694e-11
-2.75635e-10
7.36193e-11
-2.91798e-10
6.14213e-11
-3.04939e-10
4.91856e-11
-3.151e-10
3.72382e-11
-3.2239e-10
2.58305e-11
-3.26969e-10
1.51479e-11
-3.2903e-10
5.32014e-12
-3.28794e-10
-3.56995e-12
-3.26496e-10
-1.14802e-11
-3.22377e-10
-1.83997e-11
-3.16678e-10
-2.43434e-11
-3.09633e-10
-2.93467e-11
-3.01467e-10
-3.34598e-11
-2.92391e-10
-3.67434e-11
-2.82602e-10
-3.92657e-11
-2.72277e-10
-4.10989e-11
-2.61578e-10
-4.23158e-11
-2.50648e-10
-4.29902e-11
-2.39613e-10
-4.31923e-11
-2.28581e-10
-4.29895e-11
-2.17646e-10
-4.24452e-11
-2.06885e-10
-4.16179e-11
-1.96362e-10
-4.05605e-11
-1.8613e-10
-3.93214e-11
-1.76227e-10
-3.79429e-11
-1.66686e-10
-3.64628e-11
-1.57527e-10
-3.49135e-11
-1.48764e-10
-3.33235e-11
-1.40405e-10
-3.17158e-11
-1.32453e-10
-3.01112e-11
-1.24904e-10
-2.85252e-11
-1.17753e-10
-2.69716e-11
-1.10991e-10
-2.54611e-11
-1.04606e-10
-2.40009e-11
-9.85845e-11
-2.25976e-11
-9.29123e-11
-2.12554e-11
-8.75738e-11
-1.99767e-11
-8.25529e-11
-1.87629e-11
-7.78333e-11
-1.76146e-11
-7.33987e-11
-1.65312e-11
-6.92328e-11
-1.55115e-11
-6.532e-11
-1.4554e-11
-6.16448e-11
-1.36565e-11
-5.81924e-11
-1.28167e-11
-5.49484e-11
-1.20319e-11
-5.18993e-11
-1.12996e-11
-4.90322e-11
-1.06169e-11
-4.63347e-11
-9.98103e-12
-4.37954e-11
-9.38934e-12
-4.14034e-11
-8.83911e-12
-3.91485e-11
-8.32768e-12
-3.7021e-11
-7.85252e-12
-3.50119e-11
-7.41126e-12
-3.31129e-11
-7.00159e-12
-3.13163e-11
-6.6213e-12
-2.96146e-11
-6.26836e-12
-2.80012e-11
-5.94088e-12
-2.64698e-11
-5.63711e-12
-2.50144e-11
-5.35533e-12
-2.36297e-11
-5.09394e-12
-2.23104e-11
-4.8515e-12
-2.10519e-11
-4.62667e-12
-1.98497e-11
-4.41826e-12
-1.86999e-11
-4.22515e-12
-1.75985e-11
-4.04621e-12
-1.6542e-11
-3.8805e-12
-1.55271e-11
-3.72711e-12
-1.45506e-11
-3.58528e-12
-1.36096e-11
-3.45422e-12
-1.27015e-11
-3.33327e-12
-1.18236e-11
-3.22176e-12
-1.09735e-11
-3.11918e-12
-1.0149e-11
-3.02503e-12
-9.34801e-12
-2.93878e-12
-8.56844e-12
-2.85997e-12
-7.8083e-12
-2.78824e-12
-7.06571e-12
-2.7233e-12
-6.339e-12
-2.66488e-12
-5.62655e-12
-2.61262e-12
-4.92676e-12
-2.56621e-12
-4.23802e-12
-2.52546e-12
-3.55879e-12
-2.49025e-12
-2.88765e-12
-2.46042e-12
-2.22323e-12
-2.43582e-12
-1.56415e-12
-2.41629e-12
-9.0901e-13
-2.40174e-12
-2.56469e-13
-2.3921e-12
3.94768e-13
-2.38735e-12
1.046e-12
-2.38743e-12
1.69857e-12
-2.39235e-12
2.35382e-12
-2.40214e-12
3.01308e-12
-2.41686e-12
3.67767e-12
-2.43652e-12
4.34893e-12
-2.46119e-12
5.02829e-12
-2.49095e-12
5.71721e-12
-2.52596e-12
6.41716e-12
-2.56638e-12
7.12966e-12
-2.6124e-12
7.85625e-12
-2.66421e-12
8.59855e-12
-2.72201e-12
9.35828e-12
-2.78604e-12
1.01373e-11
-2.85664e-12
1.09374e-11
-2.93416e-12
1.17606e-11
-3.01898e-12
1.26089e-11
-3.11142e-12
1.34844e-11
-3.21187e-12
1.43896e-11
-3.32086e-12
1.53271e-11
-3.43901e-12
1.62992e-11
-3.56693e-12
1.73088e-11
-3.70519e-12
1.83588e-11
-3.85444e-12
1.94526e-11
-4.01544e-12
2.05935e-11
-4.18908e-12
2.17851e-11
-4.37627e-12
2.30313e-11
-4.57801e-12
2.43364e-11
-4.79533e-12
2.57049e-11
-5.02947e-12
2.71416e-11
-5.28171e-12
2.86516e-11
-5.55337e-12
3.02407e-11
-5.84589e-12
3.19147e-11
-6.16088e-12
3.36804e-11
-6.5001e-12
3.55446e-11
-6.86544e-12
3.75147e-11
-7.25883e-12
3.95989e-11
-7.68239e-12
4.18057e-11
-8.13847e-12
4.41443e-11
-8.62946e-12
4.66245e-11
-9.15775e-12
4.9257e-11
-9.72593e-12
5.20531e-11
-1.03368e-11
5.50249e-11
-1.09934e-11
5.8185e-11
-1.16986e-11
6.15469e-11
-1.24555e-11
6.51247e-11
-1.3267e-11
6.89335e-11
-1.4136e-11
7.2989e-11
-1.50656e-11
7.73073e-11
-1.60585e-11
8.19055e-11
-1.71171e-11
8.68008e-11
-1.82437e-11
9.2011e-11
-1.944e-11
9.75537e-11
-2.07072e-11
1.03447e-10
-2.20457e-11
1.09708e-10
-2.34547e-11
1.16353e-10
-2.49326e-11
1.23399e-10
-2.64763e-11
1.3086e-10
-2.8081e-11
1.38747e-10
-2.97398e-11
1.47071e-10
-3.14435e-11
1.55837e-10
-3.31803e-11
1.65047e-10