/*--------------------------------*- C++ -*----------------------------------*\
| =========                 |                                                 |
| \\      /  F ield         | OpenFOAM: The Open Source CFD Toolbox           |
|  \\    /   O peration     | Version:  2412                                  |
|   \\  /    A nd           | Website:  www.openfoam.com                      |
|    \\/     M anipulation  |                                                 |
\*---------------------------------------------------------------------------*/
FoamFile
{
    version     2.0;
    format      ascii;
    arch        "LSB;label=32;scalar=64";
    class       volVectorField;
    location    "800";
    object      U;
}
// * * * * * * * * * * * * * * * * * * * * * * * * * * * * * * * * * * * * * //

dimensions      [0 1 -1 0 0 0 0];

internalField   nonuniform List<vector> 
40000
(
(4.73636e-08 -4.98934e-08 0)
(-1.05329e-07 1.04513e-08 0)
(-6.00483e-07 6.99728e-08 0)
(-1.35266e-06 1.08291e-07 0)
(-2.27082e-06 1.2772e-07 0)
(-3.27295e-06 1.33496e-07 0)
(-4.29439e-06 1.3015e-07 0)
(-5.28731e-06 1.21037e-07 0)
(-6.21733e-06 1.08547e-07 0)
(-7.06133e-06 9.41747e-08 0)
(-7.80482e-06 7.91488e-08 0)
(-8.4399e-06 6.40962e-08 0)
(-8.964e-06 4.95874e-08 0)
(-9.37822e-06 3.59141e-08 0)
(-9.68675e-06 2.33074e-08 0)
(-9.89572e-06 1.18955e-08 0)
(-1.00127e-05 1.73274e-09 0)
(-1.00462e-05 -7.1627e-09 0)
(-1.00052e-05 -1.48613e-08 0)
(-9.89872e-06 -2.13986e-08 0)
(-9.73581e-06 -2.68192e-08 0)
(-9.52517e-06 -3.12126e-08 0)
(-9.2749e-06 -3.46625e-08 0)
(-8.99274e-06 -3.72594e-08 0)
(-8.68564e-06 -3.91228e-08 0)
(-8.35999e-06 -4.03438e-08 0)
(-8.0215e-06 -4.09437e-08 0)
(-7.67507e-06 -4.10843e-08 0)
(-7.32513e-06 -4.08152e-08 0)
(-6.97541e-06 -4.02078e-08 0)
(-6.62904e-06 -3.93278e-08 0)
(-6.28864e-06 -3.82251e-08 0)
(-5.95633e-06 -3.69502e-08 0)
(-5.63382e-06 -3.5575e-08 0)
(-5.32241e-06 -3.40907e-08 0)
(-5.02302e-06 -3.2542e-08 0)
(-4.73638e-06 -3.09957e-08 0)
(-4.46283e-06 -2.93986e-08 0)
(-4.20262e-06 -2.78573e-08 0)
(-3.95571e-06 -2.62851e-08 0)
(-3.72202e-06 -2.48506e-08 0)
(-3.50126e-06 -2.33636e-08 0)
(-3.29304e-06 -2.20195e-08 0)
(-3.0971e-06 -2.07266e-08 0)
(-2.91277e-06 -1.94581e-08 0)
(-2.73964e-06 -1.8296e-08 0)
(-2.57724e-06 -1.71743e-08 0)
(-2.42486e-06 -1.61035e-08 0)
(-2.28203e-06 -1.51385e-08 0)
(-2.14827e-06 -1.42361e-08 0)
(-2.02296e-06 -1.33538e-08 0)
(-1.90556e-06 -1.25255e-08 0)
(-1.7956e-06 -1.17753e-08 0)
(-1.69261e-06 -1.10776e-08 0)
(-1.5961e-06 -1.04172e-08 0)
(-1.50562e-06 -9.81229e-09 0)
(-1.42079e-06 -9.2596e-09 0)
(-1.34119e-06 -8.74229e-09 0)
(-1.26646e-06 -8.25678e-09 0)
(-1.19625e-06 -7.80889e-09 0)
(-1.13023e-06 -7.39348e-09 0)
(-1.06811e-06 -7.00423e-09 0)
(-1.0096e-06 -6.64115e-09 0)
(-9.5443e-07 -6.31007e-09 0)
(-9.02367e-07 -6.00795e-09 0)
(-8.53183e-07 -5.73093e-09 0)
(-8.06669e-07 -5.47106e-09 0)
(-7.62627e-07 -5.2262e-09 0)
(-7.20876e-07 -4.99639e-09 0)
(-6.81245e-07 -4.78305e-09 0)
(-6.43579e-07 -4.58719e-09 0)
(-6.07738e-07 -4.41049e-09 0)
(-5.73587e-07 -4.2476e-09 0)
(-5.41e-07 -4.09581e-09 0)
(-5.09865e-07 -3.95424e-09 0)
(-4.80072e-07 -3.82148e-09 0)
(-4.51524e-07 -3.70062e-09 0)
(-4.24125e-07 -3.5867e-09 0)
(-3.97787e-07 -3.4862e-09 0)
(-3.72427e-07 -3.39148e-09 0)
(-3.47976e-07 -3.30729e-09 0)
(-3.24369e-07 -3.22437e-09 0)
(-3.01535e-07 -3.14254e-09 0)
(-2.79409e-07 -3.0627e-09 0)
(-2.57923e-07 -2.99058e-09 0)
(-2.37029e-07 -2.93296e-09 0)
(-2.16675e-07 -2.88759e-09 0)
(-1.9681e-07 -2.85293e-09 0)
(-1.77394e-07 -2.82347e-09 0)
(-1.58385e-07 -2.78728e-09 0)
(-1.39736e-07 -2.73996e-09 0)
(-1.21398e-07 -2.69154e-09 0)
(-1.03317e-07 -2.65699e-09 0)
(-8.54582e-08 -2.64285e-09 0)
(-6.78045e-08 -2.63942e-09 0)
(-5.03231e-08 -2.63091e-09 0)
(-3.29636e-08 -2.61475e-09 0)
(-1.56837e-08 -2.60213e-09 0)
(1.54403e-09 -2.59908e-09 0)
(1.87496e-08 -2.60068e-09 0)
(3.59706e-08 -2.60203e-09 0)
(5.32462e-08 -2.60456e-09 0)
(7.06143e-08 -2.61181e-09 0)
(8.81081e-08 -2.62514e-09 0)
(1.05758e-07 -2.64348e-09 0)
(1.236e-07 -2.66679e-09 0)
(1.41673e-07 -2.69746e-09 0)
(1.60017e-07 -2.73735e-09 0)
(1.78668e-07 -2.78134e-09 0)
(1.97667e-07 -2.81956e-09 0)
(2.17061e-07 -2.8496e-09 0)
(2.36903e-07 -2.88165e-09 0)
(2.57236e-07 -2.92779e-09 0)
(2.78099e-07 -2.98971e-09 0)
(2.99535e-07 -3.05823e-09 0)
(3.216e-07 -3.12487e-09 0)
(3.4436e-07 -3.19271e-09 0)
(3.67884e-07 -3.27139e-09 0)
(3.92233e-07 -3.3672e-09 0)
(4.17463e-07 -3.47535e-09 0)
(4.43639e-07 -3.5844e-09 0)
(4.70843e-07 -3.68869e-09 0)
(4.99168e-07 -3.79669e-09 0)
(5.28703e-07 -3.92111e-09 0)
(5.59538e-07 -4.06418e-09 0)
(5.91769e-07 -4.21747e-09 0)
(6.25508e-07 -4.37352e-09 0)
(6.60879e-07 -4.53472e-09 0)
(6.98013e-07 -4.71092e-09 0)
(7.37042e-07 -4.90878e-09 0)
(7.78104e-07 -5.12813e-09 0)
(8.2136e-07 -5.3694e-09 0)
(8.66985e-07 -5.63352e-09 0)
(9.15164e-07 -5.91611e-09 0)
(9.66096e-07 -6.21117e-09 0)
(1.02e-06 -6.51721e-09 0)
(1.07711e-06 -6.84048e-09 0)
(1.13767e-06 -7.19303e-09 0)
(1.20196e-06 -7.58338e-09 0)
(1.27025e-06 -8.01684e-09 0)
(1.34286e-06 -8.49941e-09 0)
(1.42013e-06 -9.02732e-09 0)
(1.5024e-06 -9.58111e-09 0)
(1.59005e-06 -1.01422e-08 0)
(1.68349e-06 -1.07171e-08 0)
(1.78319e-06 -1.13413e-08 0)
(1.88961e-06 -1.20491e-08 0)
(2.0032e-06 -1.28467e-08 0)
(2.12445e-06 -1.37185e-08 0)
(2.2539e-06 -1.46488e-08 0)
(2.39212e-06 -1.56301e-08 0)
(2.53967e-06 -1.66563e-08 0)
(2.69714e-06 -1.77234e-08 0)
(2.86515e-06 -1.88437e-08 0)
(3.04429e-06 -2.00417e-08 0)
(3.23516e-06 -2.13287e-08 0)
(3.43832e-06 -2.26955e-08 0)
(3.65432e-06 -2.41306e-08 0)
(3.88368e-06 -2.56327e-08 0)
(4.12683e-06 -2.72051e-08 0)
(4.38416e-06 -2.88486e-08 0)
(4.65589e-06 -3.05507e-08 0)
(4.94215e-06 -3.2275e-08 0)
(5.2429e-06 -3.3989e-08 0)
(5.5579e-06 -3.56802e-08 0)
(5.88668e-06 -3.73352e-08 0)
(6.22846e-06 -3.89312e-08 0)
(6.58215e-06 -4.04308e-08 0)
(6.94626e-06 -4.17783e-08 0)
(7.31891e-06 -4.29225e-08 0)
(7.69772e-06 -4.38213e-08 0)
(8.07976e-06 -4.44208e-08 0)
(8.46153e-06 -4.46533e-08 0)
(8.83889e-06 -4.44355e-08 0)
(9.20702e-06 -4.36737e-08 0)
(9.56039e-06 -4.22817e-08 0)
(9.89277e-06 -4.01683e-08 0)
(1.01972e-05 -3.72366e-08 0)
(1.04659e-05 -3.33856e-08 0)
(1.06905e-05 -2.85062e-08 0)
(1.08621e-05 -2.2502e-08 0)
(1.09713e-05 -1.52849e-08 0)
(1.10083e-05 -6.79242e-09 0)
(1.09633e-05 3.02024e-09 0)
(1.08265e-05 1.41909e-08 0)
(1.0589e-05 2.67e-08 0)
(1.02426e-05 4.04822e-08 0)
(9.78078e-06 5.5391e-08 0)
(9.1995e-06 7.11778e-08 0)
(8.49771e-06 8.74806e-08 0)
(7.67873e-06 1.03746e-07 0)
(6.7515e-06 1.19168e-07 0)
(5.73232e-06 1.32541e-07 0)
(4.6469e-06 1.42111e-07 0)
(3.53296e-06 1.45328e-07 0)
(2.44307e-06 1.38551e-07 0)
(1.44757e-06 1.16844e-07 0)
(6.35445e-07 7.46942e-08 0)
(1.04543e-07 9.8334e-09 0)
(-5.37744e-08 -5.5691e-08 0)
(-1.93663e-08 1.0568e-07 0)
(-7.10637e-07 6.77229e-07 0)
(-2.1267e-06 1.22256e-06 0)
(-4.0897e-06 1.61716e-06 0)
(-6.41991e-06 1.85314e-06 0)
(-8.95041e-06 1.95329e-06 0)
(-1.1539e-05 1.94707e-06 0)
(-1.4073e-05 1.86192e-06 0)
(-1.64673e-05 1.72103e-06 0)
(-1.86605e-05 1.54287e-06 0)
(-2.06118e-05 1.34235e-06 0)
(-2.22966e-05 1.13087e-06 0)
(-2.37038e-05 9.17299e-07 0)
(-2.48323e-05 7.08322e-07 0)
(-2.56893e-05 5.08832e-07 0)
(-2.6288e-05 3.22322e-07 0)
(-2.66457e-05 1.51127e-07 0)
(-2.67826e-05 -3.29366e-09 0)
(-2.67207e-05 -1.40333e-07 0)
(-2.64827e-05 -2.59885e-07 0)
(-2.60914e-05 -3.62321e-07 0)
(-2.55693e-05 -4.48329e-07 0)
(-2.49374e-05 -5.18867e-07 0)
(-2.4216e-05 -5.75122e-07 0)
(-2.34237e-05 -6.18246e-07 0)
(-2.25772e-05 -6.49662e-07 0)
(-2.16922e-05 -6.70556e-07 0)
(-2.07819e-05 -6.82289e-07 0)
(-1.98584e-05 -6.86052e-07 0)
(-1.8932e-05 -6.83062e-07 0)
(-1.80113e-05 -6.74362e-07 0)
(-1.71037e-05 -6.6096e-07 0)
(-1.62152e-05 -6.43787e-07 0)
(-1.53508e-05 -6.23647e-07 0)
(-1.45142e-05 -6.01239e-07 0)
(-1.37082e-05 -5.77182e-07 0)
(-1.2935e-05 -5.52104e-07 0)
(-1.21959e-05 -5.26291e-07 0)
(-1.14916e-05 -5.00363e-07 0)
(-1.08223e-05 -4.74407e-07 0)
(-1.0188e-05 -4.48943e-07 0)
(-9.58797e-06 -4.23884e-07 0)
(-9.02154e-06 -3.99704e-07 0)
(-8.48767e-06 -3.76337e-07 0)
(-7.98509e-06 -3.53862e-07 0)
(-7.51263e-06 -3.32508e-07 0)
(-7.06895e-06 -3.12158e-07 0)
(-6.65249e-06 -2.92828e-07 0)
(-6.26187e-06 -2.74643e-07 0)
(-5.89568e-06 -2.5753e-07 0)
(-5.55246e-06 -2.41405e-07 0)
(-5.23083e-06 -2.26289e-07 0)
(-4.92946e-06 -2.12168e-07 0)
(-4.64702e-06 -1.98966e-07 0)
(-4.38227e-06 -1.86633e-07 0)
(-4.13404e-06 -1.7516e-07 0)
(-3.9012e-06 -1.64492e-07 0)
(-3.68267e-06 -1.54566e-07 0)
(-3.47746e-06 -1.45339e-07 0)
(-3.28463e-06 -1.36775e-07 0)
(-3.1033e-06 -1.28824e-07 0)
(-2.93265e-06 -1.21444e-07 0)
(-2.7719e-06 -1.14593e-07 0)
(-2.62036e-06 -1.08244e-07 0)
(-2.47733e-06 -1.02362e-07 0)
(-2.34219e-06 -9.69165e-08 0)
(-2.21437e-06 -9.18685e-08 0)
(-2.09336e-06 -8.71874e-08 0)
(-1.97864e-06 -8.28436e-08 0)
(-1.86977e-06 -7.88156e-08 0)
(-1.7663e-06 -7.50837e-08 0)
(-1.66785e-06 -7.16298e-08 0)
(-1.57404e-06 -6.84306e-08 0)
(-1.48453e-06 -6.54663e-08 0)
(-1.39901e-06 -6.27218e-08 0)
(-1.31719e-06 -6.01769e-08 0)
(-1.2388e-06 -5.78242e-08 0)
(-1.16357e-06 -5.56408e-08 0)
(-1.09126e-06 -5.36258e-08 0)
(-1.02164e-06 -5.17616e-08 0)
(-9.54515e-07 -5.00559e-08 0)
(-8.89699e-07 -4.84842e-08 0)
(-8.27015e-07 -4.70354e-08 0)
(-7.66286e-07 -4.56945e-08 0)
(-7.07341e-07 -4.44586e-08 0)
(-6.50029e-07 -4.33322e-08 0)
(-5.94202e-07 -4.23071e-08 0)
(-5.39713e-07 -4.13891e-08 0)
(-4.86435e-07 -4.0579e-08 0)
(-4.3425e-07 -3.98569e-08 0)
(-3.83061e-07 -3.92032e-08 0)
(-3.3276e-07 -3.86099e-08 0)
(-2.83207e-07 -3.80863e-08 0)
(-2.3427e-07 -3.76548e-08 0)
(-1.85853e-07 -3.73171e-08 0)
(-1.37877e-07 -3.70495e-08 0)
(-9.02492e-08 -3.68391e-08 0)
(-4.28709e-08 -3.66971e-08 0)
(4.36073e-09 -3.66319e-08 0)
(5.15477e-08 -3.66383e-08 0)
(9.87854e-08 -3.67084e-08 0)
(1.46168e-07 -3.68407e-08 0)
(1.93796e-07 -3.70402e-08 0)
(2.41766e-07 -3.73137e-08 0)
(2.90166e-07 -3.76618e-08 0)
(3.39092e-07 -3.80813e-08 0)
(3.88653e-07 -3.85745e-08 0)
(4.38966e-07 -3.91514e-08 0)
(4.90148e-07 -3.98156e-08 0)
(5.42304e-07 -4.05578e-08 0)
(5.95537e-07 -4.13703e-08 0)
(6.49966e-07 -4.22621e-08 0)
(7.05724e-07 -4.32527e-08 0)
(7.62953e-07 -4.43562e-08 0)
(8.2179e-07 -4.55706e-08 0)
(8.82374e-07 -4.68848e-08 0)
(9.44856e-07 -4.82987e-08 0)
(1.00941e-06 -4.98291e-08 0)
(1.07623e-06 -5.15008e-08 0)
(1.14549e-06 -5.33271e-08 0)
(1.2174e-06 -5.5304e-08 0)
(1.29214e-06 -5.74242e-08 0)
(1.36993e-06 -5.97001e-08 0)
(1.45103e-06 -6.2159e-08 0)
(1.53572e-06 -6.48224e-08 0)
(1.62427e-06 -6.7698e-08 0)
(1.71699e-06 -7.07895e-08 0)
(1.81419e-06 -7.41103e-08 0)
(1.9162e-06 -7.76869e-08 0)
(2.02343e-06 -8.1547e-08 0)
(2.13626e-06 -8.57106e-08 0)
(2.25512e-06 -9.02008e-08 0)
(2.38051e-06 -9.50484e-08 0)
(2.51294e-06 -1.0028e-07 0)
(2.65295e-06 -1.05921e-07 0)
(2.80112e-06 -1.11994e-07 0)
(2.95807e-06 -1.18527e-07 0)
(3.1245e-06 -1.25566e-07 0)
(3.30112e-06 -1.33155e-07 0)
(3.48874e-06 -1.41333e-07 0)
(3.68821e-06 -1.50155e-07 0)
(3.90047e-06 -1.59683e-07 0)
(4.1265e-06 -1.69958e-07 0)
(4.36728e-06 -1.80992e-07 0)
(4.62387e-06 -1.92802e-07 0)
(4.89747e-06 -2.0545e-07 0)
(5.18935e-06 -2.19028e-07 0)
(5.50082e-06 -2.33609e-07 0)
(5.83324e-06 -2.49232e-07 0)
(6.18803e-06 -2.65931e-07 0)
(6.56668e-06 -2.83742e-07 0)
(6.97069e-06 -3.02686e-07 0)
(7.4016e-06 -3.22764e-07 0)
(7.86097e-06 -3.43981e-07 0)
(8.35036e-06 -3.66356e-07 0)
(8.87135e-06 -3.8988e-07 0)
(9.42541e-06 -4.14507e-07 0)
(1.00139e-05 -4.4015e-07 0)
(1.06381e-05 -4.66698e-07 0)
(1.12991e-05 -4.94009e-07 0)
(1.19976e-05 -5.21914e-07 0)
(1.27344e-05 -5.50195e-07 0)
(1.35093e-05 -5.78535e-07 0)
(1.43222e-05 -6.06548e-07 0)
(1.51721e-05 -6.33801e-07 0)
(1.60573e-05 -6.59782e-07 0)
(1.69757e-05 -6.83901e-07 0)
(1.79239e-05 -7.05477e-07 0)
(1.88976e-05 -7.23694e-07 0)
(1.98914e-05 -7.37643e-07 0)
(2.08985e-05 -7.46342e-07 0)
(2.19107e-05 -7.487e-07 0)
(2.29184e-05 -7.43536e-07 0)
(2.39101e-05 -7.29578e-07 0)
(2.48727e-05 -7.05461e-07 0)
(2.57912e-05 -6.69793e-07 0)
(2.66488e-05 -6.2117e-07 0)
(2.74269e-05 -5.58196e-07 0)
(2.8105e-05 -4.79552e-07 0)
(2.86613e-05 -3.84028e-07 0)
(2.90724e-05 -2.70607e-07 0)
(2.93141e-05 -1.38554e-07 0)
(2.93616e-05 1.24624e-08 0)
(2.91903e-05 1.82263e-07 0)
(2.87767e-05 3.70056e-07 0)
(2.8099e-05 5.74212e-07 0)
(2.71389e-05 7.921e-07 0)
(2.58827e-05 1.01981e-06 0)
(2.43234e-05 1.25187e-06 0)
(2.24628e-05 1.48093e-06 0)
(2.03141e-05 1.69727e-06 0)
(1.79051e-05 1.88836e-06 0)
(1.52814e-05 2.03811e-06 0)
(1.25107e-05 2.12624e-06 0)
(9.68668e-06 2.12776e-06 0)
(6.93272e-06 2.01311e-06 0)
(4.40346e-06 1.75077e-06 0)
(2.27993e-06 1.31718e-06 0)
(7.54881e-07 7.22537e-07 0)
(1.78593e-08 1.05218e-07 0)
(-8.55812e-08 6.32781e-07 0)
(-1.31971e-06 2.11423e-06 0)
(-3.55313e-06 3.4043e-06 0)
(-6.51153e-06 4.34387e-06 0)
(-9.95543e-06 4.92241e-06 0)
(-1.36703e-05 5.18196e-06 0)
(-1.74687e-05 5.1815e-06 0)
(-2.1197e-05 4.98019e-06 0)
(-2.47354e-05 4.63127e-06 0)
(-2.79945e-05 4.17975e-06 0)
(-3.09122e-05 3.66299e-06 0)
(-3.34494e-05 3.11097e-06 0)
(-3.55858e-05 2.54755e-06 0)
(-3.73165e-05 1.99121e-06 0)
(-3.86487e-05 1.45583e-06 0)
(-3.95987e-05 9.51733e-07 0)
(-4.01898e-05 4.85896e-07 0)
(-4.04501e-05 6.29436e-08 0)
(-4.04104e-05 -3.1468e-07 0)
(-4.01035e-05 -6.46183e-07 0)
(-3.95624e-05 -9.32128e-07 0)
(-3.88199e-05 -1.17397e-06 0)
(-3.79074e-05 -1.37396e-06 0)
(-3.68549e-05 -1.53505e-06 0)
(-3.56902e-05 -1.66018e-06 0)
(-3.44389e-05 -1.75293e-06 0)
(-3.31242e-05 -1.81661e-06 0)
(-3.17667e-05 -1.85468e-06 0)
(-3.03847e-05 -1.87046e-06 0)
(-2.89941e-05 -1.86713e-06 0)
(-2.76084e-05 -1.84761e-06 0)
(-2.62393e-05 -1.81468e-06 0)
(-2.48961e-05 -1.77084e-06 0)
(-2.35865e-05 -1.71831e-06 0)
(-2.23168e-05 -1.6591e-06 0)
(-2.10916e-05 -1.59504e-06 0)
(-1.99143e-05 -1.52753e-06 0)
(-1.87873e-05 -1.45797e-06 0)
(-1.7712e-05 -1.38748e-06 0)
(-1.66889e-05 -1.31691e-06 0)
(-1.5718e-05 -1.24712e-06 0)
(-1.47987e-05 -1.17865e-06 0)
(-1.393e-05 -1.11205e-06 0)
(-1.31104e-05 -1.04765e-06 0)
(-1.23383e-05 -9.85736e-07 0)
(-1.16119e-05 -9.26548e-07 0)
(-1.09291e-05 -8.70161e-07 0)
(-1.02879e-05 -8.16653e-07 0)
(-9.68606e-06 -7.66085e-07 0)
(-9.12152e-06 -7.18386e-07 0)
(-8.5921e-06 -6.73515e-07 0)
(-8.09576e-06 -6.31432e-07 0)
(-7.63044e-06 -5.92021e-07 0)
(-7.19417e-06 -5.55154e-07 0)
(-6.78509e-06 -5.20736e-07 0)
(-6.40141e-06 -4.88657e-07 0)
(-6.04139e-06 -4.5878e-07 0)
(-5.70341e-06 -4.30976e-07 0)
(-5.38596e-06 -4.0513e-07 0)
(-5.08758e-06 -3.81117e-07 0)
(-4.80694e-06 -3.5882e-07 0)
(-4.54276e-06 -3.38128e-07 0)
(-4.29389e-06 -3.18932e-07 0)
(-4.05921e-06 -3.01124e-07 0)
(-3.83771e-06 -2.84604e-07 0)
(-3.62842e-06 -2.69289e-07 0)
(-3.43045e-06 -2.55095e-07 0)
(-3.24299e-06 -2.41939e-07 0)
(-3.06527e-06 -2.29742e-07 0)
(-2.89658e-06 -2.18435e-07 0)
(-2.73628e-06 -2.07956e-07 0)
(-2.58373e-06 -1.98245e-07 0)
(-2.43838e-06 -1.89244e-07 0)
(-2.2997e-06 -1.80906e-07 0)
(-2.16719e-06 -1.73181e-07 0)
(-2.04041e-06 -1.66031e-07 0)
(-1.91893e-06 -1.59413e-07 0)
(-1.80235e-06 -1.53286e-07 0)
(-1.69031e-06 -1.47613e-07 0)
(-1.58246e-06 -1.42369e-07 0)
(-1.47848e-06 -1.37545e-07 0)
(-1.37807e-06 -1.33107e-07 0)
(-1.28094e-06 -1.2903e-07 0)
(-1.18683e-06 -1.25282e-07 0)
(-1.09549e-06 -1.21844e-07 0)
(-1.00668e-06 -1.187e-07 0)
(-9.20189e-07 -1.15829e-07 0)
(-8.35801e-07 -1.13222e-07 0)
(-7.53305e-07 -1.10883e-07 0)
(-6.72491e-07 -1.08811e-07 0)
(-5.93183e-07 -1.06987e-07 0)
(-5.15216e-07 -1.05376e-07 0)
(-4.38424e-07 -1.03958e-07 0)
(-3.62634e-07 -1.02745e-07 0)
(-2.87669e-07 -1.01752e-07 0)
(-2.13368e-07 -1.00974e-07 0)
(-1.39593e-07 -1.00398e-07 0)
(-6.6205e-08 -1.00015e-07 0)
(6.95413e-09 -9.98248e-08 0)
(8.00453e-08 -9.98274e-08 0)
(1.5322e-07 -1.00023e-07 0)
(2.26622e-07 -1.00409e-07 0)
(3.00397e-07 -1.00987e-07 0)
(3.74696e-07 -1.01767e-07 0)
(4.49671e-07 -1.02754e-07 0)
(5.25474e-07 -1.03943e-07 0)
(6.02258e-07 -1.0533e-07 0)
(6.80191e-07 -1.06927e-07 0)
(7.59459e-07 -1.08751e-07 0)
(8.40246e-07 -1.10816e-07 0)
(9.22723e-07 -1.13126e-07 0)
(1.00706e-06 -1.1568e-07 0)
(1.09346e-06 -1.18489e-07 0)
(1.18211e-06 -1.21573e-07 0)
(1.27327e-06 -1.24958e-07 0)
(1.36715e-06 -1.28654e-07 0)
(1.464e-06 -1.32666e-07 0)
(1.56405e-06 -1.37005e-07 0)
(1.66758e-06 -1.417e-07 0)
(1.77489e-06 -1.46788e-07 0)
(1.8863e-06 -1.52305e-07 0)
(2.00213e-06 -1.58273e-07 0)
(2.1227e-06 -1.64709e-07 0)
(2.2484e-06 -1.71641e-07 0)
(2.37964e-06 -1.7911e-07 0)
(2.51688e-06 -1.87165e-07 0)
(2.66057e-06 -1.95855e-07 0)
(2.81121e-06 -2.0522e-07 0)
(2.96932e-06 -2.1531e-07 0)
(3.1355e-06 -2.26185e-07 0)
(3.31035e-06 -2.37906e-07 0)
(3.49456e-06 -2.50531e-07 0)
(3.68884e-06 -2.64131e-07 0)
(3.894e-06 -2.78789e-07 0)
(4.11089e-06 -2.94599e-07 0)
(4.34042e-06 -3.11654e-07 0)
(4.58355e-06 -3.30037e-07 0)
(4.84132e-06 -3.49848e-07 0)
(5.11487e-06 -3.71196e-07 0)
(5.40538e-06 -3.94176e-07 0)
(5.71416e-06 -4.18891e-07 0)
(6.04262e-06 -4.45488e-07 0)
(6.39227e-06 -4.7414e-07 0)
(6.76471e-06 -5.04991e-07 0)
(7.1616e-06 -5.38134e-07 0)
(7.58467e-06 -5.73667e-07 0)
(8.03581e-06 -6.11729e-07 0)
(8.51701e-06 -6.52466e-07 0)
(9.03033e-06 -6.96007e-07 0)
(9.57793e-06 -7.42469e-07 0)
(1.0162e-05 -7.91962e-07 0)
(1.0785e-05 -8.44574e-07 0)
(1.1449e-05 -9.0035e-07 0)
(1.21565e-05 -9.59288e-07 0)
(1.29097e-05 -1.02134e-06 0)
(1.3711e-05 -1.08644e-06 0)
(1.45624e-05 -1.15445e-06 0)
(1.5466e-05 -1.22513e-06 0)
(1.64235e-05 -1.29817e-06 0)
(1.74364e-05 -1.37311e-06 0)
(1.85058e-05 -1.44941e-06 0)
(1.96322e-05 -1.52639e-06 0)
(2.08156e-05 -1.60321e-06 0)
(2.20552e-05 -1.67883e-06 0)
(2.33495e-05 -1.75201e-06 0)
(2.46956e-05 -1.82127e-06 0)
(2.60896e-05 -1.88491e-06 0)
(2.75262e-05 -1.94102e-06 0)
(2.89987e-05 -1.98738e-06 0)
(3.04982e-05 -2.02151e-06 0)
(3.20142e-05 -2.04065e-06 0)
(3.35339e-05 -2.04181e-06 0)
(3.50421e-05 -2.02172e-06 0)
(3.65214e-05 -1.97698e-06 0)
(3.79516e-05 -1.90395e-06 0)
(3.93098e-05 -1.79893e-06 0)
(4.05705e-05 -1.6582e-06 0)
(4.17056e-05 -1.47814e-06 0)
(4.26847e-05 -1.25539e-06 0)
(4.3475e-05 -9.86978e-07 0)
(4.40422e-05 -6.70531e-07 0)
(4.43507e-05 -3.0452e-07 0)
(4.43646e-05 1.11468e-07 0)
(4.40486e-05 5.76354e-07 0)
(4.33693e-05 1.08725e-06 0)
(4.2297e-05 1.63898e-06 0)
(4.0807e-05 2.22356e-06 0)
(3.88823e-05 2.82966e-06 0)
(3.65162e-05 3.4418e-06 0)
(3.37153e-05 4.03964e-06 0)
(3.0503e-05 4.59708e-06 0)
(2.69233e-05 5.08128e-06 0)
(2.30455e-05 5.4517e-06 0)
(1.89679e-05 5.65932e-06 0)
(1.48223e-05 5.64678e-06 0)
(1.07766e-05 5.3505e-06 0)
(7.03466e-06 4.70776e-06 0)
(3.82875e-06 3.67542e-06 0)
(1.41616e-06 2.26865e-06 0)
(9.00722e-08 6.67245e-07 0)
(-1.32237e-07 1.45827e-06 0)
(-1.80422e-06 4.18464e-06 0)
(-4.70513e-06 6.41131e-06 0)
(-8.46173e-06 8.01516e-06 0)
(-1.27797e-05 9.00891e-06 0)
(-1.74104e-05 9.463e-06 0)
(-2.21375e-05 9.47015e-06 0)
(-2.67821e-05 9.12489e-06 0)
(-3.12017e-05 8.51471e-06 0)
(-3.52882e-05 7.71602e-06 0)
(-3.89641e-05 6.79367e-06 0)
(-4.21787e-05 5.80086e-06 0)
(-4.4904e-05 4.78085e-06 0)
(-4.71305e-05 3.76769e-06 0)
(-4.88641e-05 2.78755e-06 0)
(-5.01221e-05 1.86008e-06 0)
(-5.09309e-05 9.99067e-07 0)
(-5.13232e-05 2.13803e-07 0)
(-5.1336e-05 -4.90428e-07 0)
(-5.10087e-05 -1.11143e-06 0)
(-5.03817e-05 -1.6495e-06 0)
(-4.94952e-05 -2.10702e-06 0)
(-4.83885e-05 -2.48758e-06 0)
(-4.70988e-05 -2.79613e-06 0)
(-4.56611e-05 -3.03812e-06 0)
(-4.41077e-05 -3.2196e-06 0)
(-4.24681e-05 -3.34671e-06 0)
(-4.07687e-05 -3.4257e-06 0)
(-3.90329e-05 -3.46264e-06 0)
(-3.72812e-05 -3.46331e-06 0)
(-3.55313e-05 -3.43321e-06 0)
(-3.37982e-05 -3.37745e-06 0)
(-3.20943e-05 -3.3006e-06 0)
(-3.04298e-05 -3.20696e-06 0)
(-2.88132e-05 -3.10022e-06 0)
(-2.72506e-05 -2.98378e-06 0)
(-2.57467e-05 -2.8604e-06 0)
(-2.43051e-05 -2.73279e-06 0)
(-2.29276e-05 -2.60282e-06 0)
(-2.16155e-05 -2.47248e-06 0)
(-2.03689e-05 -2.34309e-06 0)
(-1.91872e-05 -2.21599e-06 0)
(-1.80693e-05 -2.09201e-06 0)
(-1.70136e-05 -1.97195e-06 0)
(-1.60182e-05 -1.85645e-06 0)
(-1.50809e-05 -1.74575e-06 0)
(-1.41992e-05 -1.64015e-06 0)
(-1.33705e-05 -1.53991e-06 0)
(-1.25922e-05 -1.44502e-06 0)
(-1.18616e-05 -1.35542e-06 0)
(-1.1176e-05 -1.27108e-06 0)
(-1.0533e-05 -1.19188e-06 0)
(-9.92974e-06 -1.11765e-06 0)
(-9.3639e-06 -1.04819e-06 0)
(-8.83309e-06 -9.83325e-07 0)
(-8.335e-06 -9.22807e-07 0)
(-7.86743e-06 -8.66409e-07 0)
(-7.42833e-06 -8.13907e-07 0)
(-7.01575e-06 -7.65076e-07 0)
(-6.62784e-06 -7.19682e-07 0)
(-6.26288e-06 -6.77511e-07 0)
(-5.91925e-06 -6.38361e-07 0)
(-5.59543e-06 -6.02037e-07 0)
(-5.29001e-06 -5.68335e-07 0)
(-5.00167e-06 -5.3707e-07 0)
(-4.72917e-06 -5.08068e-07 0)
(-4.47138e-06 -4.81173e-07 0)
(-4.22723e-06 -4.56236e-07 0)
(-3.99573e-06 -4.33115e-07 0)
(-3.77598e-06 -4.11684e-07 0)
(-3.56711e-06 -3.9182e-07 0)
(-3.36833e-06 -3.73409e-07 0)
(-3.17891e-06 -3.56343e-07 0)
(-2.99816e-06 -3.40529e-07 0)
(-2.82545e-06 -3.25874e-07 0)
(-2.6602e-06 -3.12307e-07 0)
(-2.50184e-06 -2.99747e-07 0)
(-2.34986e-06 -2.88131e-07 0)
(-2.20378e-06 -2.77385e-07 0)
(-2.06316e-06 -2.67461e-07 0)
(-1.9276e-06 -2.583e-07 0)
(-1.79668e-06 -2.49858e-07 0)
(-1.67005e-06 -2.42091e-07 0)
(-1.54735e-06 -2.34961e-07 0)
(-1.42825e-06 -2.28434e-07 0)
(-1.31245e-06 -2.22482e-07 0)
(-1.19965e-06 -2.17072e-07 0)
(-1.08958e-06 -2.12165e-07 0)
(-9.82007e-07 -2.07729e-07 0)
(-8.76647e-07 -2.0376e-07 0)
(-7.73248e-07 -2.0025e-07 0)
(-6.71577e-07 -1.97178e-07 0)
(-5.71422e-07 -1.94522e-07 0)
(-4.72574e-07 -1.92261e-07 0)
(-3.74816e-07 -1.90388e-07 0)
(-2.77936e-07 -1.88903e-07 0)
(-1.81737e-07 -1.87806e-07 0)
(-8.60276e-08 -1.87082e-07 0)
(9.38518e-09 -1.8672e-07 0)
(1.04702e-07 -1.86718e-07 0)
(2.00125e-07 -1.87083e-07 0)
(2.95846e-07 -1.87817e-07 0)
(3.92052e-07 -1.88921e-07 0)
(4.88937e-07 -1.90402e-07 0)
(5.86706e-07 -1.92268e-07 0)
(6.85567e-07 -1.94527e-07 0)
(7.8572e-07 -1.97182e-07 0)
(8.87372e-07 -2.00235e-07 0)
(9.90751e-07 -2.03698e-07 0)
(1.09609e-06 -2.07598e-07 0)
(1.20364e-06 -2.11963e-07 0)
(1.31363e-06 -2.16812e-07 0)
(1.42631e-06 -2.22157e-07 0)
(1.54193e-06 -2.28014e-07 0)
(1.6608e-06 -2.34416e-07 0)
(1.78322e-06 -2.41403e-07 0)
(1.90951e-06 -2.49012e-07 0)
(2.04e-06 -2.57274e-07 0)
(2.17503e-06 -2.66218e-07 0)
(2.31497e-06 -2.75885e-07 0)
(2.46023e-06 -2.86335e-07 0)
(2.61125e-06 -2.97636e-07 0)
(2.76847e-06 -3.09843e-07 0)
(2.93238e-06 -3.23005e-07 0)
(3.10351e-06 -3.37184e-07 0)
(3.28242e-06 -3.5246e-07 0)
(3.46972e-06 -3.68928e-07 0)
(3.66607e-06 -3.86684e-07 0)
(3.87215e-06 -4.05818e-07 0)
(4.08872e-06 -4.26442e-07 0)
(4.31659e-06 -4.48673e-07 0)
(4.55662e-06 -4.72631e-07 0)
(4.80977e-06 -4.98438e-07 0)
(5.07703e-06 -5.26235e-07 0)
(5.35951e-06 -5.56183e-07 0)
(5.65838e-06 -5.8846e-07 0)
(5.9749e-06 -6.23244e-07 0)
(6.3104e-06 -6.60728e-07 0)
(6.66637e-06 -7.01125e-07 0)
(7.04437e-06 -7.44641e-07 0)
(7.44606e-06 -7.91465e-07 0)
(7.87319e-06 -8.41804e-07 0)
(8.32767e-06 -8.95911e-07 0)
(8.81156e-06 -9.54065e-07 0)
(9.32703e-06 -1.01653e-06 0)
(9.87634e-06 -1.08355e-06 0)
(1.04619e-05 -1.15536e-06 0)
(1.10861e-05 -1.23219e-06 0)
(1.17517e-05 -1.31425e-06 0)
(1.24613e-05 -1.40174e-06 0)
(1.32179e-05 -1.49481e-06 0)
(1.40241e-05 -1.59361e-06 0)
(1.4883e-05 -1.69822e-06 0)
(1.57975e-05 -1.80866e-06 0)
(1.67703e-05 -1.92484e-06 0)
(1.78044e-05 -2.04656e-06 0)
(1.89022e-05 -2.17352e-06 0)
(2.00663e-05 -2.30527e-06 0)
(2.12987e-05 -2.44118e-06 0)
(2.2601e-05 -2.58041e-06 0)
(2.39744e-05 -2.72187e-06 0)
(2.54193e-05 -2.86418e-06 0)
(2.69355e-05 -3.00573e-06 0)
(2.85216e-05 -3.14452e-06 0)
(3.01752e-05 -3.27821e-06 0)
(3.18924e-05 -3.40401e-06 0)
(3.36677e-05 -3.51871e-06 0)
(3.54942e-05 -3.61863e-06 0)
(3.73624e-05 -3.69965e-06 0)
(3.9261e-05 -3.75713e-06 0)
(4.1176e-05 -3.78598e-06 0)
(4.30908e-05 -3.78061e-06 0)
(4.49857e-05 -3.73501e-06 0)
(4.6838e-05 -3.64288e-06 0)
(4.86219e-05 -3.49761e-06 0)
(5.03083e-05 -3.29248e-06 0)
(5.18648e-05 -3.02082e-06 0)
(5.32559e-05 -2.67618e-06 0)
(5.44432e-05 -2.25266e-06 0)
(5.5386e-05 -1.74516e-06 0)
(5.60416e-05 -1.14983e-06 0)
(5.63663e-05 -4.64435e-07 0)
(5.63161e-05 3.11096e-07 0)
(5.58486e-05 1.17403e-06 0)
(5.49239e-05 2.1182e-06 0)
(5.35072e-05 3.13317e-06 0)
(5.15708e-05 4.20334e-06 0)
(4.90966e-05 5.30704e-06 0)
(4.60797e-05 6.41525e-06 0)
(4.25319e-05 7.49053e-06 0)
(3.84851e-05 8.4856e-06 0)
(3.39964e-05 9.34217e-06 0)
(2.91517e-05 9.98983e-06 0)
(2.40702e-05 1.03457e-05 0)
(1.89083e-05 1.03155e-05 0)
(1.38613e-05 9.79785e-06 0)
(9.16453e-06 8.69438e-06 0)
(5.08717e-06 6.93254e-06 0)
(1.94582e-06 4.50472e-06 0)
(1.41269e-07 1.55468e-06 0)
(-1.60788e-07 2.50313e-06 0)
(-2.14862e-06 6.74283e-06 0)
(-5.55121e-06 1.00596e-05 0)
(-9.91221e-06 1.24146e-05 0)
(-1.48896e-05 1.38705e-05 0)
(-2.0207e-05 1.4539e-05 0)
(-2.56275e-05 1.45523e-05 0)
(-3.09558e-05 1.40433e-05 0)
(-3.60354e-05 1.31359e-05 0)
(-4.07459e-05 1.19403e-05 0)
(-4.49994e-05 1.05513e-05 0)
(-4.8737e-05 9.04834e-06 0)
(-5.19243e-05 7.49658e-06 0)
(-5.4548e-05 5.94828e-06 0)
(-5.66117e-05 4.4442e-06 0)
(-5.81325e-05 3.01515e-06 0)
(-5.91379e-05 1.6835e-06 0)
(-5.96632e-05 4.64402e-07 0)
(-5.97488e-05 -6.32993e-07 0)
(-5.94384e-05 -1.60441e-06 0)
(-5.87773e-05 -2.44947e-06 0)
(-5.78107e-05 -3.17113e-06 0)
(-5.65833e-05 -3.77444e-06 0)
(-5.51376e-05 -4.26646e-06 0)
(-5.35138e-05 -4.65529e-06 0)
(-5.17493e-05 -4.9499e-06 0)
(-4.98782e-05 -5.15959e-06 0)
(-4.79314e-05 -5.29384e-06 0)
(-4.59364e-05 -5.36188e-06 0)
(-4.39172e-05 -5.37265e-06 0)
(-4.18949e-05 -5.33465e-06 0)
(-3.98872e-05 -5.25567e-06 0)
(-3.79092e-05 -5.14304e-06 0)
(-3.59732e-05 -5.00327e-06 0)
(-3.40894e-05 -4.84229e-06 0)
(-3.22654e-05 -4.66525e-06 0)
(-3.05073e-05 -4.47679e-06 0)
(-2.88194e-05 -4.28086e-06 0)
(-2.72044e-05 -4.08075e-06 0)
(-2.56639e-05 -3.87943e-06 0)
(-2.41985e-05 -3.67915e-06 0)
(-2.28078e-05 -3.48189e-06 0)
(-2.14908e-05 -3.28919e-06 0)
(-2.02458e-05 -3.10224e-06 0)
(-1.90707e-05 -2.92204e-06 0)
(-1.7963e-05 -2.74921e-06 0)
(-1.69201e-05 -2.58418e-06 0)
(-1.59392e-05 -2.42724e-06 0)
(-1.50172e-05 -2.27851e-06 0)
(-1.4151e-05 -2.13802e-06 0)
(-1.33377e-05 -2.00567e-06 0)
(-1.25742e-05 -1.88124e-06 0)
(-1.18576e-05 -1.76453e-06 0)
(-1.1185e-05 -1.65526e-06 0)
(-1.05536e-05 -1.55314e-06 0)
(-9.9609e-06 -1.45781e-06 0)
(-9.40421e-06 -1.36892e-06 0)
(-8.88116e-06 -1.28613e-06 0)
(-8.38947e-06 -1.2091e-06 0)
(-7.92699e-06 -1.13746e-06 0)
(-7.4917e-06 -1.07088e-06 0)
(-7.08171e-06 -1.00904e-06 0)
(-6.69523e-06 -9.51627e-07 0)
(-6.33058e-06 -8.98346e-07 0)
(-5.9862e-06 -8.48909e-07 0)
(-5.66066e-06 -8.03043e-07 0)
(-5.35261e-06 -7.60496e-07 0)
(-5.06079e-06 -7.21034e-07 0)
(-4.78403e-06 -6.84441e-07 0)
(-4.52125e-06 -6.50511e-07 0)
(-4.27145e-06 -6.19055e-07 0)
(-4.03366e-06 -5.89891e-07 0)
(-3.80703e-06 -5.62858e-07 0)
(-3.59074e-06 -5.378e-07 0)
(-3.38404e-06 -5.14585e-07 0)
(-3.18624e-06 -4.93081e-07 0)
(-2.99668e-06 -4.73168e-07 0)
(-2.81473e-06 -4.54744e-07 0)
(-2.63982e-06 -4.37713e-07 0)
(-2.47144e-06 -4.2199e-07 0)
(-2.30909e-06 -4.07477e-07 0)
(-2.15229e-06 -3.94099e-07 0)
(-2.0006e-06 -3.81788e-07 0)
(-1.85362e-06 -3.70476e-07 0)
(-1.71096e-06 -3.60115e-07 0)
(-1.57225e-06 -3.50657e-07 0)
(-1.43712e-06 -3.42064e-07 0)
(-1.30525e-06 -3.34294e-07 0)
(-1.17633e-06 -3.27292e-07 0)
(-1.05008e-06 -3.21013e-07 0)
(-9.26189e-07 -3.15435e-07 0)
(-8.04371e-07 -3.10545e-07 0)
(-6.84362e-07 -3.06325e-07 0)
(-5.65905e-07 -3.02748e-07 0)
(-4.48751e-07 -2.9979e-07 0)
(-3.32657e-07 -2.97442e-07 0)
(-2.17379e-07 -2.95699e-07 0)
(-1.02678e-07 -2.94549e-07 0)
(1.16758e-08 -2.93979e-07 0)
(1.25913e-07 -2.93984e-07 0)
(2.40272e-07 -2.94568e-07 0)
(3.54985e-07 -2.95738e-07 0)
(4.70282e-07 -2.97497e-07 0)
(5.86394e-07 -2.99848e-07 0)
(7.0356e-07 -3.02796e-07 0)
(8.22027e-07 -3.06363e-07 0)
(9.4205e-07 -3.10567e-07 0)
(1.06388e-06 -3.1542e-07 0)
(1.18778e-06 -3.20932e-07 0)
(1.31402e-06 -3.27131e-07 0)
(1.44288e-06 -3.34051e-07 0)
(1.57467e-06 -3.41734e-07 0)
(1.70968e-06 -3.50213e-07 0)
(1.84824e-06 -3.59516e-07 0)
(1.99067e-06 -3.69677e-07 0)
(2.13733e-06 -3.80746e-07 0)
(2.28862e-06 -3.92789e-07 0)
(2.44493e-06 -4.05876e-07 0)
(2.60668e-06 -4.20063e-07 0)
(2.77431e-06 -4.35409e-07 0)
(2.94829e-06 -4.5199e-07 0)
(3.12914e-06 -4.699e-07 0)
(3.3174e-06 -4.89237e-07 0)
(3.51367e-06 -5.10096e-07 0)
(3.71856e-06 -5.32581e-07 0)
(3.93274e-06 -5.56811e-07 0)
(4.15694e-06 -5.82922e-07 0)
(4.39192e-06 -6.11061e-07 0)
(4.63851e-06 -6.41379e-07 0)
(4.8976e-06 -6.7404e-07 0)
(5.17016e-06 -7.09231e-07 0)
(5.45722e-06 -7.4715e-07 0)
(5.75991e-06 -7.88008e-07 0)
(6.07941e-06 -8.32027e-07 0)
(6.41701e-06 -8.79442e-07 0)
(6.77411e-06 -9.30519e-07 0)
(7.15219e-06 -9.85537e-07 0)
(7.55281e-06 -1.04478e-06 0)
(7.97771e-06 -1.10858e-06 0)
(8.42875e-06 -1.17727e-06 0)
(8.9079e-06 -1.25121e-06 0)
(9.41725e-06 -1.33073e-06 0)
(9.95899e-06 -1.41617e-06 0)
(1.05355e-05 -1.50791e-06 0)
(1.11493e-05 -1.60636e-06 0)
(1.18031e-05 -1.71191e-06 0)
(1.24996e-05 -1.82492e-06 0)
(1.32417e-05 -1.94576e-06 0)
(1.40325e-05 -2.07476e-06 0)
(1.48752e-05 -2.21222e-06 0)
(1.57729e-05 -2.35837e-06 0)
(1.67289e-05 -2.51338e-06 0)
(1.77466e-05 -2.67733e-06 0)
(1.88293e-05 -2.85023e-06 0)
(1.99801e-05 -3.0319e-06 0)
(2.12023e-05 -3.22202e-06 0)
(2.24986e-05 -3.42004e-06 0)
(2.38718e-05 -3.6252e-06 0)
(2.53239e-05 -3.83646e-06 0)
(2.68569e-05 -4.05247e-06 0)
(2.84716e-05 -4.27148e-06 0)
(3.01684e-05 -4.4913e-06 0)
(3.19464e-05 -4.7093e-06 0)
(3.38039e-05 -4.9223e-06 0)
(3.57375e-05 -5.12656e-06 0)
(3.77423e-05 -5.31771e-06 0)
(3.98117e-05 -5.49067e-06 0)
(4.19366e-05 -5.63968e-06 0)
(4.4106e-05 -5.75824e-06 0)
(4.6306e-05 -5.83913e-06 0)
(4.85197e-05 -5.8744e-06 0)
(5.07275e-05 -5.85544e-06 0)
(5.29061e-05 -5.77298e-06 0)
(5.50287e-05 -5.6173e-06 0)
(5.70651e-05 -5.37832e-06 0)
(5.89812e-05 -5.04584e-06 0)
(6.07395e-05 -4.60981e-06 0)
(6.22991e-05 -4.06062e-06 0)
(6.36158e-05 -3.38959e-06 0)
(6.4643e-05 -2.58938e-06 0)
(6.53324e-05 -1.65466e-06 0)
(6.56345e-05 -5.82786e-07 0)
(6.55002e-05 6.25479e-07 0)
(6.48825e-05 1.96498e-06 0)
(6.37379e-05 3.42516e-06 0)
(6.20287e-05 4.98891e-06 0)
(5.9726e-05 6.63126e-06 0)
(5.68124e-05 8.31796e-06 0)
(5.32853e-05 1.0004e-05 0)
(4.91609e-05 1.16321e-05 0)
(4.44783e-05 1.31308e-05 0)
(3.93033e-05 1.44134e-05 0)
(3.37334e-05 1.53769e-05 0)
(2.79013e-05 1.5902e-05 0)
(2.19784e-05 1.58552e-05 0)
(1.61781e-05 1.50938e-05 0)
(1.07579e-05 1.34781e-05 0)
(6.01728e-06 1.08918e-05 0)
(2.32498e-06 7.27516e-06 0)
(1.72903e-07 2.68295e-06 0)