/*--------------------------------*- C++ -*----------------------------------*\
| =========                 |                                                 |
| \\      /  F ield         | OpenFOAM: The Open Source CFD Toolbox           |
|  \\    /   O peration     | Version:  2412                                  |
|   \\  /    A nd           | Website:  www.openfoam.com                      |
|    \\/     M anipulation  |                                                 |
\*---------------------------------------------------------------------------*/
FoamFile
{
    version     2.0;
    format      ascii;
    arch        "LSB;label=32;scalar=64";
    class       volScalarField;
    location    "300";
    object      p;
}
// * * * * * * * * * * * * * * * * * * * * * * * * * * * * * * * * * * * * * //

dimensions      [0 2 -2 0 0 0 0];

internalField   nonuniform List<scalar> 
40000
(
0
-2.57705e-06
-3.28434e-06
-1.35785e-06
3.16872e-06
9.97032e-06
1.85589e-05
2.84306e-05
3.91133e-05
5.02029e-05
6.13635e-05
7.23345e-05
8.29217e-05
9.29847e-05
0.000102441
0.000111239
0.000119362
0.00012681
0.000133606
0.000139785
0.000145386
0.000150454
0.000155029
0.00015916
0.000162886
0.000166252
0.000169292
0.000172042
0.000174532
0.000176789
0.000178839
0.000180706
0.000182407
0.000183963
0.000185387
0.000186692
0.000187892
0.000188995
0.000190017
0.000190956
0.00019183
0.00019264
0.000193389
0.00019409
0.000194742
0.000195348
0.000195916
0.000196448
0.000196946
0.000197413
0.000197851
0.000198262
0.00019865
0.000199015
0.000199358
0.00019968
0.000199985
0.000200272
0.000200545
0.000200802
0.000201044
0.000201274
0.00020149
0.000201695
0.000201889
0.000202072
0.000202246
0.000202411
0.000202566
0.000202713
0.000202851
0.000202983
0.000203107
0.000203224
0.000203334
0.000203438
0.000203536
0.000203628
0.000203715
0.000203795
0.00020387
0.000203941
0.000204007
0.000204069
0.000204125
0.000204177
0.000204224
0.000204267
0.000204306
0.000204342
0.000204373
0.0002044
0.000204423
0.000204442
0.000204458
0.000204471
0.000204479
0.000204484
0.000204484
0.000204481
0.000204475
0.000204465
0.000204451
0.000204434
0.000204414
0.000204389
0.000204359
0.000204326
0.000204289
0.000204249
0.000204205
0.000204156
0.000204103
0.000204045
0.000203983
0.000203916
0.000203845
0.000203769
0.000203688
0.000203602
0.00020351
0.000203411
0.000203308
0.000203198
0.000203082
0.00020296
0.000202831
0.000202694
0.000202549
0.000202396
0.000202236
0.000202067
0.000201889
0.0002017
0.0002015
0.00020129
0.000201069
0.000200836
0.000200589
0.000200329
0.000200053
0.000199762
0.000199455
0.00019913
0.000198785
0.00019842
0.000198033
0.000197623
0.000197188
0.000196725
0.000196232
0.000195707
0.000195148
0.000194552
0.000193914
0.000193233
0.000192503
0.000191721
0.000190879
0.000189972
0.000188995
0.000187942
0.000186802
0.000185566
0.000184223
0.000182763
0.000181172
0.000179435
0.000177533
0.000175448
0.000173157
0.000170636
0.000167857
0.000164789
0.000161398
0.000157647
0.000153492
0.000148892
0.000143799
0.000138165
0.000131942
0.000125082
0.000117543
0.000109292
0.000100309
9.05911e-05
8.01625e-05
6.90814e-05
5.745e-05
4.54222e-05
3.32174e-05
2.11249e-05
9.51408e-06
-1.16893e-06
-1.04125e-05
-1.76695e-05
-2.24242e-05
-2.43369e-05
-2.3428e-05
-2.04945e-05
-0.000312635
-0.000315511
-0.000316126
-0.000314241
-0.000310095
-0.000303968
-0.000296251
-0.000287352
-0.000277661
-0.000267526
-0.000257233
-0.000247024
-0.000237079
-0.000227539
-0.000218497
-0.000210012
-0.000202113
-0.000194809
-0.000188094
-0.00018195
-0.000176345
-0.000171244
-0.000166615
-0.000162414
-0.00015861
-0.000155165
-0.000152044
-0.000149215
-0.000146649
-0.000144319
-0.0001422
-0.000140272
-0.000138513
-0.000136907
-0.000135437
-0.00013409
-0.000132852
-0.000131714
-0.000130666
-0.000129695
-0.0001288
-0.000127969
-0.000127197
-0.000126481
-0.000125814
-0.000125191
-0.000124611
-0.000124069
-0.000123561
-0.000123085
-0.000122639
-0.000122221
-0.000121827
-0.000121456
-0.000121107
-0.000120779
-0.000120469
-0.000120178
-0.000119902
-0.000119642
-0.000119397
-0.000119164
-0.000118945
-0.000118737
-0.000118541
-0.000118356
-0.00011818
-0.000118014
-0.000117857
-0.000117708
-0.000117568
-0.000117436
-0.000117311
-0.000117192
-0.000117081
-0.000116976
-0.000116877
-0.000116785
-0.000116697
-0.000116615
-0.00011654
-0.000116469
-0.000116402
-0.00011634
-0.000116283
-0.000116231
-0.000116183
-0.00011614
-0.0001161
-0.000116065
-0.000116033
-0.000116005
-0.000115981
-0.000115963
-0.000115948
-0.000115936
-0.000115927
-0.000115921
-0.00011592
-0.000115923
-0.000115929
-0.00011594
-0.000115954
-0.000115973
-0.000115994
-0.000116018
-0.000116046
-0.000116079
-0.000116117
-0.000116158
-0.000116203
-0.000116252
-0.000116305
-0.000116363
-0.000116426
-0.000116493
-0.000116565
-0.000116642
-0.000116724
-0.000116811
-0.000116903
-0.000117001
-0.000117106
-0.000117217
-0.000117334
-0.000117457
-0.000117587
-0.000117725
-0.000117871
-0.000118025
-0.000118188
-0.00011836
-0.00011854
-0.00011873
-0.000118931
-0.000119143
-0.000119368
-0.000119605
-0.000119854
-0.000120118
-0.000120396
-0.000120691
-0.000121002
-0.000121332
-0.000121682
-0.000122053
-0.000122448
-0.000122865
-0.000123308
-0.000123777
-0.000124278
-0.000124812
-0.000125382
-0.000125991
-0.000126644
-0.000127343
-0.000128091
-0.000128893
-0.000129756
-0.000130685
-0.000131689
-0.000132774
-0.000133948
-0.00013522
-0.000136604
-0.000138111
-0.000139755
-0.000141551
-0.000143516
-0.000145671
-0.000148037
-0.000150638
-0.000153502
-0.000156658
-0.000160139
-0.000163978
-0.000168215
-0.000172888
-0.000178039
-0.000183708
-0.000189933
-0.00019675
-0.00020419
-0.000212272
-0.000221004
-0.000230372
-0.000240338
-0.000250835
-0.000261753
-0.00027294
-0.000284192
-0.000295245
-0.000305778
-0.000315412
-0.000323726
-0.000330277
-0.00033465
-0.000336559
-0.000335788
-0.000332602
-0.000940977
-0.000944601
-0.000945604
-0.000944056
-0.000940416
-0.000934966
-0.000928064
-0.000920051
-0.000911268
-0.00090201
-0.000892545
-0.00088308
-0.000873791
-0.000864811
-0.000856232
-0.000848126
-0.000840527
-0.000833454
-0.000826909
-0.000820884
-0.000815358
-0.000810305
-0.000805697
-0.000801499
-0.000797684
-0.000794217
-0.000791066
-0.000788206
-0.000785605
-0.00078324
-0.000781087
-0.000779125
-0.000777334
-0.000775698
-0.000774202
-0.000772826
-0.000771567
-0.000770406
-0.000769337
-0.000768351
-0.00076744
-0.000766595
-0.000765811
-0.000765083
-0.000764407
-0.000763775
-0.000763187
-0.000762637
-0.000762122
-0.00076164
-0.000761188
-0.000760764
-0.000760366
-0.000759992
-0.00075964
-0.000759308
-0.000758995
-0.0007587
-0.000758422
-0.000758159
-0.000757912
-0.000757678
-0.000757457
-0.000757247
-0.000757049
-0.000756862
-0.000756686
-0.000756519
-0.00075636
-0.00075621
-0.000756069
-0.000755936
-0.000755811
-0.000755692
-0.000755579
-0.000755473
-0.000755375
-0.000755281
-0.000755194
-0.000755111
-0.000755034
-0.000754963
-0.000754896
-0.000754835
-0.000754778
-0.000754725
-0.000754676
-0.000754632
-0.000754593
-0.000754558
-0.000754527
-0.000754499
-0.000754474
-0.000754454
-0.000754438
-0.000754427
-0.000754419
-0.000754414
-0.000754413
-0.000754416
-0.000754422
-0.000754431
-0.000754445
-0.000754463
-0.000754486
-0.000754511
-0.000754539
-0.000754572
-0.000754609
-0.000754651
-0.000754696
-0.000754745
-0.000754799
-0.000754857
-0.00075492
-0.000754987
-0.000755059
-0.000755136
-0.000755219
-0.000755307
-0.0007554
-0.000755499
-0.000755604
-0.000755715
-0.000755833
-0.000755957
-0.000756089
-0.000756227
-0.000756374
-0.000756528
-0.000756692
-0.000756865
-0.000757047
-0.000757239
-0.000757441
-0.000757655
-0.00075788
-0.000758119
-0.000758371
-0.000758637
-0.000758918
-0.000759216
-0.000759531
-0.000759864
-0.000760216
-0.000760589
-0.000760986
-0.000761409
-0.000761859
-0.000762336
-0.000762844
-0.000763386
-0.000763963
-0.000764579
-0.000765238
-0.000765946
-0.000766706
-0.000767522
-0.0007684
-0.000769345
-0.000770367
-0.000771472
-0.000772669
-0.000773966
-0.000775376
-0.000776911
-0.000778585
-0.000780414
-0.000782414
-0.000784606
-0.00078701
-0.000789649
-0.000792551
-0.000795743
-0.000799255
-0.000803118
-0.000807367
-0.000812037
-0.000817161
-0.000822776
-0.000828911
-0.000835593
-0.000842843
-0.000850668
-0.000859066
-0.000868013
-0.000877463
-0.000887343
-0.000897542
-0.000907913
-0.000918265
-0.000928358
-0.000937909
-0.00094659
-0.000954041
-0.000959883
-0.000963742
-0.000965322
-0.00096415
-0.000960156
-0.00188195
-0.00188629
-0.0018878
-0.00188671
-0.00188361
-0.00187882
-0.00187267
-0.00186546
-0.00185752
-0.00184909
-0.00184042
-0.00183169
-0.00182308
-0.00181469
-0.00180663
-0.00179897
-0.00179174
-0.00178498
-0.00177868
-0.00177286
-0.00176749
-0.00176256
-0.00175804
-0.00175391
-0.00175014
-0.0017467
-0.00174357
-0.00174072
-0.00173813
-0.00173576
-0.0017336
-0.00173163
-0.00172983
-0.00172819
-0.00172668
-0.0017253
-0.00172403
-0.00172286
-0.00172178
-0.00172079
-0.00171987
-0.00171901
-0.00171823
-0.00171749
-0.00171681
-0.00171617
-0.00171558
-0.00171503
-0.00171451
-0.00171402
-0.00171357
-0.00171314
-0.00171274
-0.00171236
-0.00171201
-0.00171168
-0.00171136
-0.00171106
-0.00171079
-0.00171052
-0.00171027
-0.00171004
-0.00170981
-0.00170961
-0.00170941
-0.00170922
-0.00170904
-0.00170887
-0.00170871
-0.00170856
-0.00170842
-0.00170829
-0.00170816
-0.00170804
-0.00170793
-0.00170782
-0.00170772
-0.00170763
-0.00170754
-0.00170746
-0.00170738
-0.00170731
-0.00170725
-0.00170718
-0.00170713
-0.00170707
-0.00170702
-0.00170698
-0.00170694
-0.0017069
-0.00170687
-0.00170685
-0.00170682
-0.0017068
-0.00170679
-0.00170677
-0.00170677
-0.00170676
-0.00170676
-0.00170676
-0.00170677
-0.00170678
-0.00170679
-0.00170681
-0.00170683
-0.00170686
-0.00170689
-0.00170692
-0.00170696
-0.001707
-0.00170704
-0.00170709
-0.00170715
-0.00170721
-0.00170727
-0.00170734
-0.00170741
-0.00170749
-0.00170757
-0.00170766
-0.00170775
-0.00170785
-0.00170795
-0.00170807
-0.00170818
-0.00170831
-0.00170844
-0.00170858
-0.00170873
-0.00170888
-0.00170905
-0.00170922
-0.0017094
-0.0017096
-0.0017098
-0.00171001
-0.00171024
-0.00171048
-0.00171073
-0.001711
-0.00171128
-0.00171158
-0.0017119
-0.00171223
-0.00171259
-0.00171296
-0.00171336
-0.00171379
-0.00171424
-0.00171472
-0.00171523
-0.00171578
-0.00171636
-0.00171698
-0.00171765
-0.00171836
-0.00171912
-0.00171995
-0.00172083
-0.00172178
-0.00172281
-0.00172393
-0.00172513
-0.00172644
-0.00172786
-0.00172941
-0.00173109
-0.00173293
-0.00173494
-0.00173715
-0.00173955
-0.0017422
-0.00174509
-0.00174827
-0.00175176
-0.00175559
-0.00175979
-0.00176438
-0.00176941
-0.00177488
-0.00178084
-0.0017873
-0.00179428
-0.00180176
-0.00180975
-0.0018182
-0.00182708
-0.00183631
-0.00184577
-0.00185534
-0.00186483
-0.00187403
-0.00188268
-0.00189049
-0.00189715
-0.0019023
-0.00190559
-0.0019067
-0.00190499
-0.00190023
-0.00312994
-0.00313466
-0.00313655
-0.0031359
-0.00313334
-0.00312918
-0.00312375
-0.00311733
-0.0031102
-0.00310259
-0.00309471
-0.00308674
-0.00307882
-0.00307107
-0.00306358
-0.00305641
-0.00304962
-0.00304323
-0.00303725
-0.0030317
-0.00302655
-0.0030218
-0.00301743
-0.00301342
-0.00300975
-0.00300639
-0.00300332
-0.00300052
-0.00299796
-0.00299562
-0.00299349
-0.00299153
-0.00298975
-0.00298811
-0.00298661
-0.00298523
-0.00298396
-0.00298279
-0.00298172
-0.00298072
-0.0029798
-0.00297895
-0.00297816
-0.00297743
-0.00297674
-0.00297611
-0.00297551
-0.00297496
-0.00297444
-0.00297395
-0.0029735
-0.00297307
-0.00297267
-0.00297229
-0.00297194
-0.0029716
-0.00297129
-0.00297099
-0.00297071
-0.00297045
-0.0029702
-0.00296996
-0.00296974
-0.00296953
-0.00296933
-0.00296914
-0.00296896
-0.0029688
-0.00296864
-0.00296849
-0.00296835
-0.00296821
-0.00296808
-0.00296797
-0.00296785
-0.00296775
-0.00296765
-0.00296755
-0.00296747
-0.00296738
-0.00296731
-0.00296723
-0.00296717
-0.00296711
-0.00296705
-0.002967
-0.00296695
-0.0029669
-0.00296686
-0.00296683
-0.0029668
-0.00296677
-0.00296674
-0.00296673
-0.00296671
-0.0029667
-0.00296669
-0.00296668
-0.00296668
-0.00296668
-0.00296669
-0.0029667
-0.00296672
-0.00296673
-0.00296675
-0.00296678
-0.00296681
-0.00296684
-0.00296688
-0.00296692
-0.00296697
-0.00296702
-0.00296707
-0.00296713
-0.00296719
-0.00296726
-0.00296733
-0.00296741
-0.00296749
-0.00296758
-0.00296767
-0.00296777
-0.00296788
-0.00296799
-0.00296811
-0.00296823
-0.00296836
-0.0029685
-0.00296865
-0.00296881
-0.00296897
-0.00296914
-0.00296933
-0.00296952
-0.00296972
-0.00296994
-0.00297017
-0.0029704
-0.00297066
-0.00297093
-0.00297121
-0.00297151
-0.00297182
-0.00297216
-0.00297252
-0.00297289
-0.00297329
-0.00297372
-0.00297417
-0.00297465
-0.00297516
-0.00297571
-0.00297629
-0.00297691
-0.00297758
-0.00297829
-0.00297906
-0.00297988
-0.00298077
-0.00298173
-0.00298275
-0.00298387
-0.00298507
-0.00298638
-0.0029878
-0.00298934
-0.00299102
-0.00299285
-0.00299484
-0.00299703
-0.00299941
-0.00300202
-0.00300488
-0.003008
-0.00301143
-0.00301517
-0.00301926
-0.00302372
-0.00302857
-0.00303385
-0.00303957
-0.00304573
-0.00305235
-0.00305943
-0.00306693
-0.00307484
-0.0030831
-0.00309163
-0.00310034
-0.00310909
-0.00311772
-0.00312604
-0.00313382
-0.00314079
-0.00314668
-0.00315116
-0.00315389
-0.00315455
-0.00315243
-0.00314723
-0.00467708
-0.00468186
-0.00468396
-0.00468366
-0.0046816
-0.00467804
-0.00467329
-0.00466763
-0.00466129
-0.00465449
-0.0046474
-0.00464018
-0.00463298
-0.0046259
-0.00461901
-0.0046124
-0.00460609
-0.00460013
-0.00459452
-0.00458929
-0.00458442
-0.00457991
-0.00457574
-0.0045719
-0.00456837
-0.00456513
-0.00456216
-0.00455944
-0.00455694
-0.00455466
-0.00455257
-0.00455066
-0.0045489
-0.00454729
-0.00454581
-0.00454445
-0.0045432
-0.00454204
-0.00454098
-0.00453999
-0.00453908
-0.00453823
-0.00453745
-0.00453672
-0.00453604
-0.00453541
-0.00453481
-0.00453426
-0.00453375
-0.00453326
-0.00453281
-0.00453238
-0.00453198
-0.00453161
-0.00453125
-0.00453092
-0.00453061
-0.00453031
-0.00453003
-0.00452977
-0.00452952
-0.00452928
-0.00452906
-0.00452885
-0.00452865
-0.00452847
-0.00452829
-0.00452812
-0.00452796
-0.00452781
-0.00452767
-0.00452754
-0.00452741
-0.00452729
-0.00452718
-0.00452707
-0.00452697
-0.00452688
-0.00452679
-0.00452671
-0.00452663
-0.00452656
-0.00452649
-0.00452643
-0.00452638
-0.00452632
-0.00452627
-0.00452623
-0.00452619
-0.00452616
-0.00452612
-0.0045261
-0.00452607
-0.00452605
-0.00452604
-0.00452602
-0.00452602
-0.00452601
-0.00452601
-0.00452601
-0.00452602
-0.00452603
-0.00452604
-0.00452606
-0.00452608
-0.00452611
-0.00452614
-0.00452617
-0.00452621
-0.00452625
-0.00452629
-0.00452634
-0.0045264
-0.00452646
-0.00452652
-0.00452659
-0.00452666
-0.00452674
-0.00452682
-0.00452691
-0.004527
-0.0045271
-0.0045272
-0.00452732
-0.00452743
-0.00452756
-0.00452769
-0.00452783
-0.00452798
-0.00452813
-0.0045283
-0.00452847
-0.00452865
-0.00452884
-0.00452905
-0.00452926
-0.00452949
-0.00452973
-0.00452998
-0.00453025
-0.00453053
-0.00453083
-0.00453114
-0.00453148
-0.00453183
-0.00453221
-0.00453261
-0.00453303
-0.00453348
-0.00453396
-0.00453447
-0.00453501
-0.00453559
-0.00453621
-0.00453688
-0.00453759
-0.00453835
-0.00453917
-0.00454005
-0.004541
-0.00454202
-0.00454312
-0.00454432
-0.00454561
-0.00454701
-0.00454853
-0.00455019
-0.00455199
-0.00455395
-0.00455609
-0.00455842
-0.00456097
-0.00456375
-0.00456679
-0.0045701
-0.00457371
-0.00457764
-0.00458191
-0.00458655
-0.00459156
-0.00459697
-0.00460278
-0.00460899
-0.0046156
-0.00462257
-0.00462988
-0.00463748
-0.00464529
-0.00465321
-0.00466114
-0.00466891
-0.00467636
-0.00468329
-0.00468947
-0.00469462
-0.00469847
-0.00470069
-0.00470096
-0.00469862
-0.00469334
-0.00651359
-0.00651816
-0.0065203
-0.00652027
-0.00651862
-0.00651562
-0.00651153
-0.0065066
-0.00650103
-0.00649502
-0.00648872
-0.00648227
-0.0064758
-0.0064694
-0.00646316
-0.00645712
-0.00645134
-0.00644585
-0.00644067
-0.0064358
-0.00643125
-0.00642702
-0.0064231
-0.00641947
-0.00641612
-0.00641303
-0.0064102
-0.00640759
-0.00640519
-0.00640299
-0.00640097
-0.00639911
-0.00639741
-0.00639584
-0.0063944
-0.00639307
-0.00639184
-0.00639071
-0.00638966
-0.00638869
-0.00638779
-0.00638696
-0.00638618
-0.00638546
-0.00638479
-0.00638417
-0.00638358
-0.00638304
-0.00638252
-0.00638204
-0.00638159
-0.00638117
-0.00638078
-0.0063804
-0.00638005
-0.00637972
-0.00637941
-0.00637912
-0.00637884
-0.00637858
-0.00637833
-0.0063781
-0.00637787
-0.00637767
-0.00637747
-0.00637728
-0.00637711
-0.00637694
-0.00637678
-0.00637663
-0.00637649
-0.00637636
-0.00637623
-0.00637611
-0.006376
-0.0063759
-0.0063758
-0.0063757
-0.00637562
-0.00637554
-0.00637546
-0.00637539
-0.00637532
-0.00637526
-0.0063752
-0.00637515
-0.0063751
-0.00637506
-0.00637502
-0.00637498
-0.00637495
-0.00637492
-0.0063749
-0.00637488
-0.00637486
-0.00637485
-0.00637484
-0.00637484
-0.00637484
-0.00637484
-0.00637485
-0.00637486
-0.00637487
-0.00637489
-0.00637491
-0.00637494
-0.00637496
-0.006375
-0.00637503
-0.00637508
-0.00637512
-0.00637517
-0.00637522
-0.00637528
-0.00637534
-0.00637541
-0.00637548
-0.00637556
-0.00637564
-0.00637573
-0.00637582
-0.00637592
-0.00637603
-0.00637614
-0.00637626
-0.00637638
-0.00637651
-0.00637665
-0.0063768
-0.00637695
-0.00637711
-0.00637729
-0.00637747
-0.00637766
-0.00637786
-0.00637807
-0.0063783
-0.00637854
-0.00637879
-0.00637905
-0.00637933
-0.00637963
-0.00637995
-0.00638028
-0.00638063
-0.006381
-0.0063814
-0.00638182
-0.00638227
-0.00638274
-0.00638325
-0.00638379
-0.00638436
-0.00638497
-0.00638563
-0.00638633
-0.00638709
-0.00638789
-0.00638876
-0.0063897
-0.0063907
-0.00639179
-0.00639296
-0.00639423
-0.0063956
-0.00639709
-0.0063987
-0.00640046
-0.00640236
-0.00640444
-0.00640669
-0.00640915
-0.00641183
-0.00641474
-0.0064179
-0.00642134
-0.00642507
-0.00642911
-0.00643348
-0.00643819
-0.00644324
-0.00644864
-0.00645439
-0.00646048
-0.00646688
-0.00647355
-0.00648045
-0.00648751
-0.00649464
-0.00650173
-0.00650866
-0.00651526
-0.00652136
-0.00652676
-0.00653121
-0.00653448
-0.00653625
-0.00653625
-0.00653387
-0.00652881
-0.00862811
-0.00863226
-0.0086343
-0.00863443
-0.00863314
-0.00863064
-0.00862718
-0.00862295
-0.00861813
-0.00861289
-0.00860737
-0.00860169
-0.00859597
-0.00859027
-0.00858468
-0.00857926
-0.00857404
-0.00856905
-0.00856432
-0.00855986
-0.00855567
-0.00855176
-0.00854811
-0.00854473
-0.00854159
-0.00853869
-0.00853601
-0.00853354
-0.00853127
-0.00852917
-0.00852724
-0.00852546
-0.00852382
-0.00852231
-0.00852091
-0.00851962
-0.00851843
-0.00851733
-0.00851631
-0.00851537
-0.00851449
-0.00851367
-0.00851292
-0.00851221
-0.00851155
-0.00851094
-0.00851036
-0.00850982
-0.00850932
-0.00850885
-0.0085084
-0.00850799
-0.0085076
-0.00850723
-0.00850688
-0.00850655
-0.00850625
-0.00850596
-0.00850568
-0.00850542
-0.00850518
-0.00850495
-0.00850473
-0.00850452
-0.00850432
-0.00850414
-0.00850397
-0.0085038
-0.00850364
-0.00850349
-0.00850336
-0.00850322
-0.0085031
-0.00850298
-0.00850287
-0.00850277
-0.00850267
-0.00850257
-0.00850249
-0.00850241
-0.00850233
-0.00850226
-0.00850219
-0.00850213
-0.00850207
-0.00850202
-0.00850197
-0.00850193
-0.00850189
-0.00850186
-0.00850183
-0.0085018
-0.00850177
-0.00850175
-0.00850174
-0.00850173
-0.00850172
-0.00850171
-0.00850171
-0.00850172
-0.00850172
-0.00850173
-0.00850175
-0.00850176
-0.00850178
-0.00850181
-0.00850184
-0.00850187
-0.00850191
-0.00850195
-0.00850199
-0.00850204
-0.0085021
-0.00850215
-0.00850222
-0.00850228
-0.00850236
-0.00850243
-0.00850251
-0.0085026
-0.00850269
-0.00850279
-0.0085029
-0.00850301
-0.00850312
-0.00850325
-0.00850338
-0.00850351
-0.00850366
-0.00850381
-0.00850397
-0.00850415
-0.00850433
-0.00850452
-0.00850472
-0.00850493
-0.00850515
-0.00850539
-0.00850564
-0.0085059
-0.00850618
-0.00850647
-0.00850678
-0.00850711
-0.00850746
-0.00850783
-0.00850822
-0.00850863
-0.00850907
-0.00850954
-0.00851004
-0.00851057
-0.00851114
-0.00851174
-0.00851239
-0.00851308
-0.00851382
-0.00851461
-0.00851546
-0.00851637
-0.00851736
-0.00851841
-0.00851956
-0.00852079
-0.00852212
-0.00852356
-0.00852512
-0.00852681
-0.00852864
-0.00853063
-0.00853279
-0.00853514
-0.00853768
-0.00854044
-0.00854342
-0.00854666
-0.00855015
-0.00855393
-0.00855798
-0.00856234
-0.008567
-0.00857195
-0.0085772
-0.00858273
-0.00858852
-0.00859453
-0.00860072
-0.00860701
-0.00861334
-0.0086196
-0.00862568
-0.00863145
-0.00863674
-0.00864138
-0.00864518
-0.00864791
-0.0086493
-0.00864913
-0.00864686
-0.00864225
-0.0110079
-0.0110115
-0.0110133
-0.0110135
-0.0110125
-0.0110105
-0.0110076
-0.0110041
-0.011
-0.0109955
-0.0109907
-0.0109858
-0.0109808
-0.0109758
-0.0109709
-0.0109661
-0.0109615
-0.010957
-0.0109528
-0.0109488
-0.0109449
-0.0109414
-0.010938
-0.0109349
-0.010932
-0.0109293
-0.0109268
-0.0109245
-0.0109224
-0.0109204
-0.0109186
-0.0109169
-0.0109154
-0.0109139
-0.0109126
-0.0109113
-0.0109102
-0.0109091
-0.0109082
-0.0109072
-0.0109064
-0.0109056
-0.0109049
-0.0109042
-0.0109035
-0.0109029
-0.0109024
-0.0109018
-0.0109013
-0.0109009
-0.0109005
-0.0109
-0.0108997
-0.0108993
-0.010899
-0.0108986
-0.0108983
-0.010898
-0.0108978
-0.0108975
-0.0108973
-0.010897
-0.0108968
-0.0108966
-0.0108964
-0.0108963
-0.0108961
-0.0108959
-0.0108958
-0.0108956
-0.0108955
-0.0108953
-0.0108952
-0.0108951
-0.010895
-0.0108949
-0.0108948
-0.0108947
-0.0108946
-0.0108945
-0.0108945
-0.0108944
-0.0108943
-0.0108943
-0.0108942
-0.0108942
-0.0108941
-0.0108941
-0.010894
-0.010894
-0.010894
-0.0108939
-0.0108939
-0.0108939
-0.0108939
-0.0108939
-0.0108939
-0.0108938
-0.0108938
-0.0108939
-0.0108939
-0.0108939
-0.0108939
-0.0108939
-0.0108939
-0.0108939
-0.010894
-0.010894
-0.010894
-0.0108941
-0.0108941
-0.0108942
-0.0108942
-0.0108943
-0.0108943
-0.0108944
-0.0108945
-0.0108946
-0.0108946
-0.0108947
-0.0108948
-0.0108949
-0.010895
-0.0108951
-0.0108952
-0.0108954
-0.0108955
-0.0108956
-0.0108958
-0.0108959
-0.0108961
-0.0108963
-0.0108964
-0.0108966
-0.0108968
-0.010897
-0.0108973
-0.0108975
-0.0108977
-0.010898
-0.0108983
-0.0108986
-0.0108989
-0.0108992
-0.0108995
-0.0108999
-0.0109003
-0.0109007
-0.0109011
-0.0109016
-0.0109021
-0.0109026
-0.0109031
-0.0109037
-0.0109044
-0.010905
-0.0109058
-0.0109065
-0.0109074
-0.0109082
-0.0109092
-0.0109102
-0.0109113
-0.0109125
-0.0109138
-0.0109152
-0.0109167
-0.0109183
-0.01092
-0.0109219
-0.0109239
-0.0109262
-0.0109285
-0.0109311
-0.0109339
-0.0109369
-0.0109401
-0.0109436
-0.0109473
-0.0109513
-0.0109555
-0.01096
-0.0109647
-0.0109697
-0.0109749
-0.0109802
-0.0109856
-0.0109912
-0.0109967
-0.0110021
-0.0110074
-0.0110123
-0.0110168
-0.0110207
-0.0110239
-0.0110262
-0.0110272
-0.011027
-0.0110249
-0.0110209
-0.0136391
-0.0136421
-0.0136436
-0.0136438
-0.0136431
-0.0136415
-0.0136391
-0.0136362
-0.0136328
-0.0136291
-0.0136251
-0.0136209
-0.0136167
-0.0136124
-0.0136081
-0.013604
-0.0135999
-0.013596
-0.0135922
-0.0135887
-0.0135853
-0.0135821
-0.0135791
-0.0135762
-0.0135736
-0.0135711
-0.0135688
-0.0135667
-0.0135647
-0.0135629
-0.0135612
-0.0135596
-0.0135581
-0.0135568
-0.0135555
-0.0135543
-0.0135532
-0.0135522
-0.0135513
-0.0135504
-0.0135496
-0.0135488
-0.0135481
-0.0135475
-0.0135468
-0.0135463
-0.0135457
-0.0135452
-0.0135447
-0.0135443
-0.0135438
-0.0135434
-0.0135431
-0.0135427
-0.0135424
-0.0135421
-0.0135418
-0.0135415
-0.0135412
-0.013541
-0.0135407
-0.0135405
-0.0135403
-0.0135401
-0.0135399
-0.0135397
-0.0135396
-0.0135394
-0.0135392
-0.0135391
-0.013539
-0.0135388
-0.0135387
-0.0135386
-0.0135385
-0.0135384
-0.0135383
-0.0135382
-0.0135381
-0.013538
-0.013538
-0.0135379
-0.0135378
-0.0135378
-0.0135377
-0.0135377
-0.0135376
-0.0135376
-0.0135375
-0.0135375
-0.0135375
-0.0135374
-0.0135374
-0.0135374
-0.0135374
-0.0135374
-0.0135374
-0.0135374
-0.0135374
-0.0135374
-0.0135374
-0.0135374
-0.0135374
-0.0135374
-0.0135374
-0.0135374
-0.0135375
-0.0135375
-0.0135375
-0.0135376
-0.0135376
-0.0135377
-0.0135377
-0.0135378
-0.0135378
-0.0135379
-0.013538
-0.0135381
-0.0135381
-0.0135382
-0.0135383
-0.0135384
-0.0135385
-0.0135386
-0.0135387
-0.0135389
-0.013539
-0.0135391
-0.0135393
-0.0135394
-0.0135396
-0.0135397
-0.0135399
-0.0135401
-0.0135403
-0.0135405
-0.0135407
-0.0135409
-0.0135412
-0.0135414
-0.0135417
-0.013542
-0.0135423
-0.0135426
-0.013543
-0.0135433
-0.0135437
-0.0135441
-0.0135445
-0.013545
-0.0135454
-0.0135459
-0.0135465
-0.0135471
-0.0135477
-0.0135483
-0.013549
-0.0135498
-0.0135506
-0.0135514
-0.0135523
-0.0135533
-0.0135544
-0.0135555
-0.0135567
-0.013558
-0.0135595
-0.013561
-0.0135626
-0.0135644
-0.0135663
-0.0135684
-0.0135706
-0.0135729
-0.0135755
-0.0135783
-0.0135812
-0.0135844
-0.0135877
-0.0135913
-0.0135951
-0.013599
-0.0136032
-0.0136076
-0.0136121
-0.0136167
-0.0136215
-0.0136262
-0.0136309
-0.0136355
-0.01364
-0.0136441
-0.0136479
-0.0136511
-0.0136537
-0.0136555
-0.0136564
-0.0136561
-0.0136544
-0.0136511
-0.0165071
-0.0165093
-0.0165105
-0.0165108
-0.0165102
-0.016509
-0.0165071
-0.0165048
-0.0165021
-0.0164991
-0.0164958
-0.0164924
-0.0164888
-0.0164852
-0.0164817
-0.0164781
-0.0164746
-0.0164713
-0.016468
-0.0164649
-0.0164619
-0.0164591
-0.0164564
-0.0164539
-0.0164516
-0.0164493
-0.0164473
-0.0164453
-0.0164435
-0.0164418
-0.0164402
-0.0164388
-0.0164374
-0.0164361
-0.016435
-0.0164339
-0.0164328
-0.0164319
-0.016431
-0.0164301
-0.0164294
-0.0164286
-0.016428
-0.0164273
-0.0164267
-0.0164262
-0.0164256
-0.0164251
-0.0164247
-0.0164242
-0.0164238
-0.0164234
-0.0164231
-0.0164227
-0.0164224
-0.0164221
-0.0164218
-0.0164215
-0.0164213
-0.016421
-0.0164208
-0.0164206
-0.0164204
-0.0164202
-0.01642
-0.0164198
-0.0164196
-0.0164195
-0.0164193
-0.0164192
-0.016419
-0.0164189
-0.0164188
-0.0164187
-0.0164186
-0.0164185
-0.0164184
-0.0164183
-0.0164182
-0.0164181
-0.0164181
-0.016418
-0.0164179
-0.0164179
-0.0164178
-0.0164178
-0.0164177
-0.0164177
-0.0164176
-0.0164176
-0.0164176
-0.0164175
-0.0164175
-0.0164175
-0.0164175
-0.0164175
-0.0164175
-0.0164175
-0.0164175
-0.0164175
-0.0164175
-0.0164175
-0.0164175
-0.0164175
-0.0164175
-0.0164176
-0.0164176
-0.0164176
-0.0164177
-0.0164177
-0.0164177
-0.0164178
-0.0164178
-0.0164179
-0.016418
-0.016418
-0.0164181
-0.0164182
-0.0164182
-0.0164183
-0.0164184
-0.0164185
-0.0164186
-0.0164187
-0.0164188
-0.016419
-0.0164191
-0.0164192
-0.0164193
-0.0164195
-0.0164197
-0.0164198
-0.01642
-0.0164202
-0.0164204
-0.0164206
-0.0164208
-0.016421
-0.0164212
-0.0164215
-0.0164218
-0.016422
-0.0164223
-0.0164226
-0.016423
-0.0164233
-0.0164237
-0.0164241
-0.0164245
-0.0164249
-0.0164254
-0.0164259
-0.0164264
-0.016427
-0.0164275
-0.0164282
-0.0164288
-0.0164296
-0.0164303
-0.0164311
-0.016432
-0.016433
-0.016434
-0.016435
-0.0164362
-0.0164374
-0.0164387
-0.0164402
-0.0164417
-0.0164433
-0.0164451
-0.016447
-0.016449
-0.0164512
-0.0164535
-0.016456
-0.0164586
-0.0164614
-0.0164644
-0.0164676
-0.0164709
-0.0164744
-0.016478
-0.0164818
-0.0164856
-0.0164896
-0.0164936
-0.0164976
-0.0165015
-0.0165053
-0.016509
-0.0165124
-0.0165154
-0.016518
-0.01652
-0.0165214
-0.0165221
-0.0165218
-0.0165204
-0.0165179
-0.0195965
-0.0195981
-0.0195989
-0.0195991
-0.0195987
-0.0195978
-0.0195964
-0.0195947
-0.0195926
-0.0195902
-0.0195877
-0.0195849
-0.0195821
-0.0195792
-0.0195762
-0.0195733
-0.0195704
-0.0195676
-0.0195649
-0.0195622
-0.0195597
-0.0195572
-0.0195549
-0.0195527
-0.0195506
-0.0195486
-0.0195468
-0.019545
-0.0195434
-0.0195419
-0.0195404
-0.0195391
-0.0195378
-0.0195367
-0.0195356
-0.0195345
-0.0195336
-0.0195327
-0.0195318
-0.0195311
-0.0195303
-0.0195296
-0.019529
-0.0195284
-0.0195278
-0.0195273
-0.0195268
-0.0195263
-0.0195258
-0.0195254
-0.019525
-0.0195246
-0.0195243
-0.019524
-0.0195236
-0.0195233
-0.0195231
-0.0195228
-0.0195225
-0.0195223
-0.0195221
-0.0195219
-0.0195217
-0.0195215
-0.0195213
-0.0195211
-0.0195209
-0.0195208
-0.0195206
-0.0195205
-0.0195204
-0.0195202
-0.0195201
-0.01952
-0.0195199
-0.0195198
-0.0195197
-0.0195196
-0.0195195
-0.0195195
-0.0195194
-0.0195193
-0.0195193
-0.0195192
-0.0195192
-0.0195191
-0.0195191
-0.019519
-0.019519
-0.0195189
-0.0195189
-0.0195189
-0.0195189
-0.0195189
-0.0195188
-0.0195188
-0.0195188
-0.0195188
-0.0195188
-0.0195188
-0.0195188
-0.0195188
-0.0195188
-0.0195189
-0.0195189
-0.0195189
-0.0195189
-0.019519
-0.019519
-0.019519
-0.0195191
-0.0195191
-0.0195192
-0.0195192
-0.0195193
-0.0195194
-0.0195194
-0.0195195
-0.0195196
-0.0195197
-0.0195197
-0.0195198
-0.0195199
-0.01952
-0.0195202
-0.0195203
-0.0195204
-0.0195205
-0.0195207
-0.0195208
-0.019521
-0.0195211
-0.0195213
-0.0195215
-0.0195217
-0.0195219
-0.0195221
-0.0195223
-0.0195225
-0.0195228
-0.019523
-0.0195233
-0.0195236
-0.0195239
-0.0195242
-0.0195245
-0.0195249
-0.0195253
-0.0195257
-0.0195261
-0.0195265
-0.019527
-0.0195275
-0.0195281
-0.0195286
-0.0195292
-0.0195299
-0.0195305
-0.0195313
-0.0195321
-0.0195329
-0.0195338
-0.0195347
-0.0195357
-0.0195368
-0.0195379
-0.0195392
-0.0195405
-0.0195419
-0.0195434
-0.019545
-0.0195467
-0.0195485
-0.0195505
-0.0195526
-0.0195548
-0.0195571
-0.0195596
-0.0195622
-0.0195649
-0.0195677
-0.0195707
-0.0195738
-0.0195769
-0.0195802
-0.0195834
-0.0195867
-0.01959
-0.0195932
-0.0195962
-0.0195991
-0.0196018
-0.0196041
-0.0196061
-0.0196076
-0.0196087
-0.0196091
-0.0196089
-0.019608
-0.0196062
-0.0228917
-0.0228926
-0.0228931
-0.0228932
-0.022893
-0.0228924
-0.0228914
-0.0228902
-0.0228887
-0.022887
-0.022885
-0.022883
-0.0228808
-0.0228785
-0.0228762
-0.0228739
-0.0228716
-0.0228693
-0.022867
-0.0228648
-0.0228627
-0.0228607
-0.0228587
-0.0228568
-0.022855
-0.0228533
-0.0228517
-0.0228501
-0.0228487
-0.0228473
-0.022846
-0.0228448
-0.0228437
-0.0228426
-0.0228416
-0.0228406
-0.0228397
-0.0228389
-0.0228381
-0.0228374
-0.0228367
-0.0228361
-0.0228354
-0.0228349
-0.0228343
-0.0228338
-0.0228333
-0.0228329
-0.0228325
-0.022832
-0.0228317
-0.0228313
-0.022831
-0.0228306
-0.0228303
-0.02283
-0.0228298
-0.0228295
-0.0228293
-0.022829
-0.0228288
-0.0228286
-0.0228284
-0.0228282
-0.022828
-0.0228279
-0.0228277
-0.0228276
-0.0228274
-0.0228273
-0.0228272
-0.022827
-0.0228269
-0.0228268
-0.0228267
-0.0228266
-0.0228265
-0.0228264
-0.0228264
-0.0228263
-0.0228262
-0.0228261
-0.0228261
-0.022826
-0.022826
-0.0228259
-0.0228259
-0.0228258
-0.0228258