/*--------------------------------*- C++ -*----------------------------------*\
| =========                 |                                                 |
| \\      /  F ield         | OpenFOAM: The Open Source CFD Toolbox           |
|  \\    /   O peration     | Version:  2412                                  |
|   \\  /    A nd           | Website:  www.openfoam.com                      |
|    \\/     M anipulation  |                                                 |
\*---------------------------------------------------------------------------*/
FoamFile
{
    version     2.0;
    format      ascii;
    arch        "LSB;label=32;scalar=64";
    class       volScalarField;
    location    "300";
    object      p_rgh;
}
// * * * * * * * * * * * * * * * * * * * * * * * * * * * * * * * * * * * * * //

dimensions      [0 2 -2 0 0 0 0];

internalField   nonuniform List<scalar> 
40000
(
7.9027e-05
7.6588e-05
7.59977e-05
7.80312e-05
8.2656e-05
8.95476e-05
9.82182e-05
0.000108164
0.000118915
0.000130065
0.00014128
0.000152299
0.000162929
0.00017303
0.00018252
0.000191346
0.000199495
0.000206965
0.000213779
0.000219974
0.000225589
0.000230667
0.000235252
0.000239391
0.000243123
0.000246494
0.000249539
0.000252293
0.000254786
0.000257045
0.000259097
0.000260965
0.000262668
0.000264225
0.000265649
0.000266955
0.000268156
0.000269259
0.000270281
0.000271221
0.000272095
0.000272904
0.000273654
0.000274354
0.000275006
0.000275613
0.000276181
0.000276713
0.000277211
0.000277677
0.000278115
0.000278527
0.000278915
0.000279279
0.000279622
0.000279945
0.000280249
0.000280537
0.000280809
0.000281066
0.000281309
0.000281538
0.000281755
0.00028196
0.000282153
0.000282337
0.000282511
0.000282675
0.000282831
0.000282977
0.000283116
0.000283247
0.000283372
0.000283489
0.000283599
0.000283702
0.0002838
0.000283893
0.000283979
0.00028406
0.000284135
0.000284206
0.000284272
0.000284333
0.00028439
0.000284441
0.000284488
0.000284531
0.000284571
0.000284606
0.000284638
0.000284665
0.000284688
0.000284707
0.000284723
0.000284735
0.000284744
0.000284748
0.000284749
0.000284746
0.00028474
0.000284729
0.000284716
0.000284699
0.000284678
0.000284653
0.000284624
0.00028459
0.000284554
0.000284513
0.000284469
0.000284421
0.000284367
0.00028431
0.000284248
0.000284181
0.00028411
0.000284033
0.000283952
0.000283866
0.000283774
0.000283676
0.000283572
0.000283463
0.000283347
0.000283225
0.000283096
0.000282959
0.000282814
0.000282661
0.000282501
0.000282332
0.000282153
0.000281964
0.000281765
0.000281554
0.000281333
0.0002811
0.000280854
0.000280593
0.000280317
0.000280026
0.000279719
0.000279394
0.00027905
0.000278684
0.000278297
0.000277888
0.000277453
0.00027699
0.000276496
0.000275972
0.000275413
0.000274816
0.000274179
0.000273497
0.000272768
0.000271986
0.000271144
0.000270237
0.000269259
0.000268205
0.000267065
0.000265829
0.000264486
0.000263025
0.000261433
0.000259695
0.000257792
0.000255705
0.000253412
0.000250888
0.000248106
0.000245034
0.000241639
0.000237881
0.000233719
0.00022911
0.000224006
0.00021836
0.000212122
0.000205245
0.000197685
0.000189411
0.000180399
0.00017065
0.000160185
0.000149063
0.000137385
0.000125304
0.000113041
0.000100883
8.92e-05
7.84375e-05
6.91069e-05
6.17552e-05
5.6898e-05
5.48753e-05
5.56672e-05
5.84784e-05
0.000396714
0.000395041
0.000395463
0.000398301
0.000403323
0.000410252
0.000418702
0.000428266
0.000438559
0.000449236
0.000460014
0.000470656
0.000480984
0.000490863
0.000500201
0.000508944
0.000517068
0.000524566
0.000531446
0.000537732
0.000543457
0.00054866
0.000553373
0.000557645
0.000561507
0.000565
0.000568161
0.000571022
0.000573614
0.000575966
0.000578101
0.000580042
0.000581812
0.000583426
0.000584903
0.000586255
0.000587497
0.000588638
0.000589688
0.00059066
0.000591557
0.000592389
0.000593161
0.000593878
0.000594545
0.000595168
0.000595749
0.000596291
0.000596799
0.000597275
0.000597721
0.000598139
0.000598533
0.000598904
0.000599253
0.000599581
0.000599891
0.000600182
0.000600458
0.000600718
0.000600963
0.000601196
0.000601415
0.000601623
0.000601819
0.000602005
0.00060218
0.000602346
0.000602503
0.000602652
0.000602792
0.000602924
0.000603049
0.000603168
0.000603279
0.000603384
0.000603483
0.000603575
0.000603663
0.000603745
0.00060382
0.000603891
0.000603958
0.00060402
0.000604077
0.000604129
0.000604177
0.00060422
0.00060426
0.000604295
0.000604327
0.000604355
0.000604379
0.000604397
0.000604412
0.000604424
0.000604433
0.000604439
0.00060444
0.000604437
0.00060443
0.00060442
0.000604405
0.000604387
0.000604366
0.000604342
0.000604314
0.00060428
0.000604243
0.000604202
0.000604157
0.000604108
0.000604055
0.000603997
0.000603934
0.000603867
0.000603795
0.000603718
0.000603636
0.000603549
0.000603457
0.000603359
0.000603254
0.000603143
0.000603026
0.000602903
0.000602773
0.000602635
0.000602489
0.000602335
0.000602172
0.000602
0.00060182
0.00060163
0.000601429
0.000601217
0.000600992
0.000600755
0.000600506
0.000600243
0.000599964
0.000599669
0.000599358
0.000599028
0.000598679
0.000598307
0.000597912
0.000597495
0.000597052
0.000596583
0.000596082
0.000595548
0.000594978
0.000594368
0.000593716
0.000593016
0.000592267
0.000591465
0.000590602
0.000589671
0.000588665
0.000587579
0.000586402
0.000585127
0.000583739
0.000582226
0.000580574
0.000578769
0.000576792
0.000574622
0.000572237
0.000569612
0.000566719
0.000563527
0.000560002
0.000556108
0.000551806
0.000547054
0.000541809
0.000536028
0.00052967
0.000522696
0.000515073
0.000506777
0.000497799
0.000488148
0.000477857
0.000466992
0.000455658
0.000444001
0.000432226
0.000420589
0.00040941
0.000399066
0.000389974
0.000382577
0.000377288
0.000374395
0.000374116
0.000376197
0.0010208
0.0010204
0.00102223
0.00102638
0.00103241
0.00104006
0.00104897
0.0010588
0.00106924
0.00107998
0.00109077
0.00110142
0.00111176
0.00112167
0.00113106
0.00113988
0.00114809
0.00115569
0.00116269
0.00116911
0.00117496
0.00118029
0.00118513
0.00118952
0.0011935
0.0011971
0.00120036
0.00120331
0.00120598
0.0012084
0.0012106
0.0012126
0.00121442
0.00121608
0.00121759
0.00121898
0.00122025
0.00122142
0.00122249
0.00122348
0.0012244
0.00122525
0.00122603
0.00122676
0.00122744
0.00122807
0.00122866
0.00122921
0.00122973
0.00123021
0.00123066
0.00123108
0.00123148
0.00123186
0.00123221
0.00123254
0.00123285
0.00123315
0.00123343
0.00123369
0.00123394
0.00123417
0.00123439
0.0012346
0.0012348
0.00123499
0.00123516
0.00123533
0.00123549
0.00123564
0.00123578
0.00123591
0.00123604
0.00123616
0.00123627
0.00123638
0.00123647
0.00123657
0.00123665
0.00123674
0.00123681
0.00123689
0.00123695
0.00123701
0.00123707
0.00123712
0.00123717
0.00123722
0.00123726
0.00123729
0.00123732
0.00123735
0.00123737
0.00123739
0.00123741
0.00123742
0.00123743
0.00123743
0.00123744
0.00123743
0.00123743
0.00123742
0.0012374
0.00123739
0.00123736
0.00123734
0.00123731
0.00123728
0.00123724
0.0012372
0.00123715
0.0012371
0.00123705
0.00123699
0.00123693
0.00123686
0.00123679
0.00123671
0.00123663
0.00123654
0.00123645
0.00123635
0.00123625
0.00123613
0.00123602
0.00123589
0.00123576
0.00123562
0.00123547
0.00123532
0.00123516
0.00123498
0.0012348
0.00123461
0.00123441
0.00123419
0.00123397
0.00123373
0.00123348
0.00123321
0.00123293
0.00123263
0.00123232
0.00123198
0.00123163
0.00123126
0.00123086
0.00123044
0.00122999
0.00122951
0.001229
0.00122846
0.00122789
0.00122727
0.00122661
0.0012259
0.00122514
0.00122432
0.00122344
0.00122249
0.00122147
0.00122036
0.00121915
0.00121785
0.00121642
0.00121487
0.00121318
0.00121133
0.00120929
0.00120706
0.0012046
0.0012019
0.00119892
0.00119563
0.00119199
0.00118798
0.00118355
0.00117867
0.00117328
0.00116736
0.00116086
0.00115375
0.001146
0.00113759
0.00112851
0.00111879
0.00110845
0.00109756
0.00108622
0.00107456
0.00106277
0.00105108
0.00103976
0.00102913
0.00101955
0.00101138
0.00100501
0.00100072
0.000998998
0.000999916
0.00193824
0.00194003
0.00194392
0.00195
0.00195768
0.00196669
0.0019767
0.0019874
0.00199851
0.00200979
0.00202102
0.00203202
0.00204265
0.00205282
0.00206244
0.00207146
0.00207987
0.00208765
0.00209482
0.00210139
0.00210739
0.00211286
0.00211782
0.00212232
0.0021264
0.00213009
0.00213343
0.00213645
0.00213918
0.00214166
0.0021439
0.00214595
0.0021478
0.00214949
0.00215103
0.00215244
0.00215373
0.00215491
0.00215601
0.00215701
0.00215793
0.00215879
0.00215958
0.00216032
0.00216101
0.00216164
0.00216224
0.00216279
0.00216331
0.0021638
0.00216425
0.00216468
0.00216508
0.00216546
0.00216581
0.00216614
0.00216646
0.00216675
0.00216703
0.0021673
0.00216755
0.00216778
0.002168
0.00216821
0.00216841
0.0021686
0.00216878
0.00216895
0.0021691
0.00216925
0.0021694
0.00216953
0.00216966
0.00216978
0.00216989
0.00216999
0.00217009
0.00217019
0.00217027
0.00217036
0.00217043
0.00217051
0.00217057
0.00217063
0.00217069
0.00217074
0.00217079
0.00217084
0.00217088
0.00217091
0.00217094
0.00217097
0.002171
0.00217102
0.00217103
0.00217104
0.00217105
0.00217106
0.00217106
0.00217105
0.00217105
0.00217104
0.00217102
0.00217101
0.00217099
0.00217096
0.00217093
0.0021709
0.00217086
0.00217082
0.00217077
0.00217072
0.00217067
0.00217061
0.00217055
0.00217048
0.00217041
0.00217033
0.00217025
0.00217016
0.00217007
0.00216997
0.00216986
0.00216975
0.00216963
0.00216951
0.00216938
0.00216924
0.00216909
0.00216894
0.00216877
0.0021686
0.00216842
0.00216822
0.00216802
0.0021678
0.00216758
0.00216734
0.00216709
0.00216682
0.00216654
0.00216624
0.00216592
0.00216559
0.00216523
0.00216485
0.00216446
0.00216403
0.00216358
0.0021631
0.00216259
0.00216204
0.00216146
0.00216084
0.00216017
0.00215946
0.00215869
0.00215786
0.00215697
0.00215601
0.00215498
0.00215385
0.00215263
0.00215131
0.00214986
0.00214829
0.00214656
0.00214467
0.0021426
0.00214032
0.00213781
0.00213504
0.00213199
0.00212862
0.0021249
0.00212079
0.00211624
0.00211123
0.00210571
0.00209964
0.00209298
0.0020857
0.00207776
0.00206915
0.00205987
0.00204992
0.00203933
0.00202816
0.0020165
0.00200447
0.00199221
0.00197994
0.00196788
0.00195633
0.00194557
0.00193594
0.00192781
0.00192148
0.0019176
0.0019164
0.00313103
0.0031361
0.00314286
0.00315152
0.00316145
0.00317239
0.00318401
0.00319605
0.00320828
0.00322048
0.00323247
0.0032441
0.00325527
0.00326588
0.00327588
0.00328524
0.00329393
0.00330196
0.00330934
0.0033161
0.00332227
0.00332787
0.00333296
0.00333757
0.00334174
0.00334551
0.00334891
0.00335199
0.00335477
0.00335728
0.00335956
0.00336162
0.0033635
0.00336521
0.00336677
0.00336819
0.00336949
0.00337068
0.00337178
0.00337278
0.00337371
0.00337458
0.00337537
0.00337611
0.0033768
0.00337743
0.00337803
0.00337859
0.00337911
0.00337959
0.00338005
0.00338048
0.00338088
0.00338125
0.00338161
0.00338194
0.00338226
0.00338255
0.00338283
0.0033831
0.00338335
0.00338358
0.00338381
0.00338402
0.00338421
0.0033844
0.00338458
0.00338475
0.00338491
0.00338506
0.0033852
0.00338533
0.00338546
0.00338558
0.00338569
0.0033858
0.0033859
0.00338599
0.00338608
0.00338616
0.00338624
0.00338631
0.00338638
0.00338644
0.0033865
0.00338655
0.0033866
0.00338664
0.00338668
0.00338672
0.00338675
0.00338678
0.0033868
0.00338682
0.00338684
0.00338685
0.00338686
0.00338686
0.00338686
0.00338686
0.00338685
0.00338684
0.00338683
0.00338681
0.00338679
0.00338676
0.00338674
0.0033867
0.00338667
0.00338662
0.00338658
0.00338653
0.00338648
0.00338642
0.00338635
0.00338629
0.00338621
0.00338614
0.00338605
0.00338597
0.00338587
0.00338577
0.00338567
0.00338556
0.00338544
0.00338531
0.00338518
0.00338504
0.00338489
0.00338474
0.00338457
0.0033844
0.00338422
0.00338403
0.00338382
0.00338361
0.00338338
0.00338314
0.00338289
0.00338262
0.00338234
0.00338204
0.00338172
0.00338139
0.00338103
0.00338065
0.00338025
0.00337983
0.00337938
0.0033789
0.00337838
0.00337784
0.00337725
0.00337663
0.00337596
0.00337524
0.00337447
0.00337365
0.00337275
0.00337179
0.00337075
0.00336962
0.00336839
0.00336705
0.0033656
0.00336401
0.00336227
0.00336036
0.00335826
0.00335595
0.0033534
0.00335059
0.00334749
0.00334406
0.00334026
0.00333606
0.00333141
0.00332628
0.00332062
0.00331439
0.00330755
0.00330006
0.00329188
0.003283
0.0032734
0.00326309
0.00325208
0.00324042
0.00322818
0.00321545
0.00320237
0.00318909
0.00317583
0.00316282
0.00315032
0.00313863
0.00312809
0.003119
0.00311208
0.00310761
0.00457661
0.00458588
0.00459624
0.00460808
0.00462079
0.00463413
0.0046478
0.00466159
0.00467529
0.00468872
0.00470174
0.00471424
0.00472613
0.00473735
0.00474787
0.00475765
0.0047667
0.00477503
0.00478267
0.00478963
0.00479597
0.00480172
0.00480693
0.00481164
0.00481589
0.00481972
0.00482317
0.00482629
0.0048291
0.00483164
0.00483393
0.00483601
0.00483789
0.0048396
0.00484116
0.00484259
0.00484388
0.00484508
0.00484617
0.00484718
0.00484811
0.00484896
0.00484976
0.00485049
0.00485118
0.00485181
0.00485241
0.00485296
0.00485348
0.00485396
0.00485442
0.00485484
0.00485524
0.00485562
0.00485597
0.00485631
0.00485662
0.00485692
0.0048572
0.00485746
0.00485771
0.00485794
0.00485816
0.00485837
0.00485857
0.00485876
0.00485894
0.00485911
0.00485926
0.00485941
0.00485955
0.00485969
0.00485982
0.00485993
0.00486005
0.00486015
0.00486025
0.00486035
0.00486043
0.00486052
0.00486059
0.00486066
0.00486073
0.00486079
0.00486085
0.0048609
0.00486095
0.00486099
0.00486103
0.00486107
0.0048611
0.00486113
0.00486115
0.00486117
0.00486119
0.0048612
0.00486121
0.00486121
0.00486121
0.00486121
0.00486121
0.0048612
0.00486118
0.00486116
0.00486114
0.00486112
0.00486109
0.00486106
0.00486102
0.00486098
0.00486093
0.00486088
0.00486083
0.00486077
0.00486071
0.00486064
0.00486057
0.00486049
0.00486041
0.00486032
0.00486023
0.00486013
0.00486002
0.00485991
0.00485979
0.00485967
0.00485954
0.0048594
0.00485925
0.00485909
0.00485893
0.00485876
0.00485858
0.00485838
0.00485818
0.00485797
0.00485774
0.0048575
0.00485725
0.00485698
0.0048567
0.0048564
0.00485608
0.00485575
0.0048554
0.00485502
0.00485462
0.0048542
0.00485375
0.00485327
0.00485276
0.00485221
0.00485163
0.00485101
0.00485034
0.00484963
0.00484886
0.00484803
0.00484714
0.00484618
0.00484514
0.00484402
0.00484279
0.00484146
0.00484
0.00483841
0.00483666
0.00483475
0.00483264
0.00483032
0.00482775
0.00482491
0.00482177
0.00481829
0.00481444
0.00481016
0.00480543
0.00480019
0.00479439
0.004788
0.00478096
0.00477323
0.00476477
0.00475556
0.00474556
0.00473477
0.0047232
0.00471087
0.00469783
0.00468415
0.00466994
0.00465532
0.00464045
0.00462555
0.00461082
0.00459654
0.00458301
0.00457052
0.00455975
0.004551
0.00624833
0.00626254
0.00627709
0.00629258
0.00630849
0.0063246
0.00634066
0.00635649
0.00637192
0.00638682
0.00640108
0.00641462
0.00642738
0.00643933
0.00645044
0.00646072
0.00647019
0.00647885
0.00648676
0.00649395
0.00650048
0.00650637
0.00651169
0.00651648
0.00652079
0.00652467
0.00652816
0.0065313
0.00653412
0.00653667
0.00653896
0.00654104
0.00654292
0.00654462
0.00654617
0.00654758
0.00654887
0.00655005
0.00655114
0.00655213
0.00655305
0.0065539
0.00655469
0.00655542
0.0065561
0.00655673
0.00655731
0.00655786
0.00655838
0.00655886
0.00655931
0.00655973
0.00656013
0.0065605
0.00656085
0.00656118
0.00656149
0.00656179
0.00656206
0.00656233
0.00656257
0.00656281
0.00656303
0.00656323
0.00656343
0.00656362
0.00656379
0.00656396
0.00656412
0.00656427
0.00656441
0.00656454
0.00656467
0.00656479
0.0065649
0.006565
0.0065651
0.0065652
0.00656528
0.00656537
0.00656544
0.00656551
0.00656558
0.00656564
0.0065657
0.00656575
0.0065658
0.00656584
0.00656588
0.00656592
0.00656595
0.00656598
0.006566
0.00656602
0.00656604
0.00656605
0.00656606
0.00656606
0.00656606
0.00656606
0.00656605
0.00656604
0.00656603
0.00656601
0.00656599
0.00656596
0.00656594
0.0065659
0.00656587
0.00656582
0.00656578
0.00656573
0.00656568
0.00656562
0.00656556
0.00656549
0.00656542
0.00656534
0.00656526
0.00656517
0.00656508
0.00656498
0.00656487
0.00656476
0.00656464
0.00656452
0.00656439
0.00656425
0.0065641
0.00656395
0.00656379
0.00656361
0.00656343
0.00656324
0.00656304
0.00656283
0.0065626
0.00656236
0.00656211
0.00656185
0.00656157
0.00656127
0.00656096
0.00656062
0.00656027
0.0065599
0.0065595
0.00655908
0.00655864
0.00655816
0.00655765
0.00655711
0.00655654
0.00655592
0.00655526
0.00655455
0.00655379
0.00655298
0.00655209
0.00655114
0.00655011
0.00654899
0.00654778
0.00654646
0.00654501
0.00654343
0.0065417
0.00653979
0.00653768
0.00653536
0.00653279
0.00652995
0.00652679
0.00652328
0.00651939
0.00651506
0.00651025
0.00650491
0.00649898
0.00649243
0.00648519
0.00647721
0.00646844
0.00645884
0.00644839
0.00643704
0.0064248
0.00641167
0.00639767
0.00638285
0.00636727
0.00635104
0.00633428
0.00631715
0.00629982
0.00628253
0.00626554
0.00624911
0.00623383
0.00621999
0.00811624
0.00813587
0.00815501
0.00817449
0.00819388
0.00821301
0.00823168
0.00824975
0.00826709
0.00828362
0.00829924
0.00831393
0.00832765
0.0083404
0.00835217
0.00836299
0.00837289
0.00838191
0.0083901
0.00839752
0.00840421
0.00841024
0.00841565
0.00842051
0.00842487
0.00842878
0.00843229
0.00843543
0.00843825
0.00844079
0.00844307
0.00844513
0.00844699
0.00844867
0.0084502
0.00845159
0.00845287
0.00845403
0.00845509
0.00845607
0.00845698
0.00845781
0.00845859
0.0084593
0.00845997
0.00846059
0.00846117
0.00846171
0.00846221
0.00846269
0.00846313
0.00846355
0.00846394
0.00846431
0.00846466
0.00846498
0.00846529
0.00846558
0.00846586
0.00846611
0.00846636
0.00846659
0.00846681
0.00846702
0.00846721
0.0084674
0.00846757
0.00846774
0.00846789
0.00846804
0.00846818
0.00846831
0.00846844
0.00846855
0.00846867
0.00846877
0.00846887
0.00846896
0.00846905
0.00846913
0.00846921
0.00846928
0.00846934
0.0084694
0.00846946
0.00846951
0.00846956
0.0084696
0.00846964
0.00846968
0.00846971
0.00846974
0.00846976
0.00846978
0.0084698
0.00846981
0.00846982
0.00846982
0.00846982
0.00846982
0.00846981
0.0084698
0.00846979
0.00846977
0.00846975
0.00846973
0.0084697
0.00846966
0.00846963
0.00846959
0.00846954
0.00846949
0.00846944
0.00846938
0.00846932
0.00846925
0.00846918
0.0084691
0.00846902
0.00846893
0.00846884
0.00846874
0.00846864
0.00846853
0.00846841
0.00846829
0.00846816
0.00846802
0.00846788
0.00846772
0.00846756
0.00846739
0.00846721
0.00846702
0.00846682
0.00846661
0.00846639
0.00846615
0.0084659
0.00846564
0.00846536
0.00846507
0.00846476
0.00846443
0.00846408
0.00846371
0.00846332
0.0084629
0.00846246
0.00846199
0.00846149
0.00846096
0.00846039
0.00845979
0.00845914
0.00845844
0.00845769
0.00845689
0.00845602
0.00845508
0.00845407
0.00845297
0.00845178
0.00845047
0.00844905
0.00844749
0.00844578
0.00844389
0.00844181
0.0084395
0.00843695
0.00843411
0.00843095
0.00842744
0.00842352
0.00841915
0.00841429
0.00840886
0.00840283
0.00839612
0.00838868
0.00838044
0.00837136
0.00836136
0.00835041
0.00833847
0.00832549
0.00831147
0.00829641
0.00828031
0.00826323
0.00824521
0.00822635
0.00820677
0.00818659
0.00816601
0.00814522
0.00812446
0.00810422
0.00808473
0.0101479
0.0101732
0.0101971
0.0102207
0.0102438
0.010266
0.0102874
0.0103078
0.0103272
0.0103454
0.0103624
0.0103783
0.010393
0.0104066
0.010419
0.0104304
0.0104407
0.0104501
0.0104586
0.0104662
0.0104731
0.0104792
0.0104847
0.0104896
0.010494
0.0104979
0.0105014
0.0105045
0.0105073
0.0105099
0.0105121
0.0105141
0.010516
0.0105176
0.0105191
0.0105205
0.0105217
0.0105229
0.0105239
0.0105249
0.0105257
0.0105266
0.0105273
0.010528
0.0105287
0.0105293
0.0105298
0.0105304
0.0105309
0.0105313
0.0105318
0.0105322
0.0105326
0.0105329
0.0105333
0.0105336
0.0105339
0.0105342
0.0105344
0.0105347
0.0105349
0.0105352
0.0105354
0.0105356
0.0105358
0.010536
0.0105361
0.0105363
0.0105364
0.0105366
0.0105367
0.0105369
0.010537
0.0105371
0.0105372
0.0105373
0.0105374
0.0105375
0.0105376
0.0105377
0.0105377
0.0105378
0.0105379
0.0105379
0.010538
0.0105381
0.0105381
0.0105381
0.0105382
0.0105382
0.0105382
0.0105383
0.0105383
0.0105383
0.0105383
0.0105383
0.0105384
0.0105384
0.0105384
0.0105384
0.0105383
0.0105383
0.0105383
0.0105383
0.0105383
0.0105383
0.0105382
0.0105382
0.0105382
0.0105381
0.0105381
0.010538
0.010538
0.0105379
0.0105379
0.0105378
0.0105377
0.0105376
0.0105376
0.0105375
0.0105374
0.0105373
0.0105372
0.0105371
0.010537
0.0105368
0.0105367
0.0105366
0.0105364
0.0105363
0.0105361
0.0105359
0.0105358
0.0105356
0.0105354
0.0105352
0.010535
0.0105347
0.0105345
0.0105342
0.0105339
0.0105337
0.0105333
0.010533
0.0105327
0.0105323
0.0105319
0.0105315
0.0105311
0.0105306
0.0105301
0.0105296
0.0105291
0.0105285
0.0105278
0.0105271
0.0105264
0.0105256
0.0105248
0.0105239
0.0105229
0.0105218
0.0105206
0.0105194
0.010518
0.0105164
0.0105148
0.0105129
0.0105109
0.0105086
0.0105061
0.0105033
0.0105001
0.0104966
0.0104927
0.0104883
0.0104834
0.0104779
0.0104718
0.010465
0.0104573
0.0104489
0.0104395
0.0104291
0.0104176
0.0104051
0.0103913
0.0103764
0.0103602
0.0103428
0.0103241
0.0103042
0.0102832
0.010261
0.0102379
0.0102138
0.0101891
0.0101638
0.0101383
0.0101129
0.0123093
0.0123403
0.012369
0.0123968
0.0124234
0.0124488
0.0124729
0.0124956
0.0125169
0.0125368
0.0125553
0.0125724
0.0125881
0.0126024
0.0126155
0.0126274
0.0126382
0.0126479
0.0126566
0.0126644
0.0126714
0.0126776
0.0126832
0.0126881
0.0126925
0.0126964
0.0126999
0.012703
0.0127057
0.0127082
0.0127104
0.0127124
0.0127142
0.0127158
0.0127172
0.0127186
0.0127198
0.0127209
0.0127219
0.0127228
0.0127236
0.0127244
0.0127252
0.0127259
0.0127265
0.0127271
0.0127276
0.0127281
0.0127286
0.0127291
0.0127295
0.0127299
0.0127303
0.0127306
0.012731
0.0127313
0.0127316
0.0127319
0.0127321
0.0127324
0.0127326
0.0127328
0.0127331
0.0127333
0.0127334
0.0127336
0.0127338
0.012734
0.0127341
0.0127343
0.0127344
0.0127345
0.0127346
0.0127348
0.0127349
0.012735
0.0127351
0.0127352
0.0127352
0.0127353
0.0127354
0.0127355
0.0127355
0.0127356
0.0127356
0.0127357
0.0127357
0.0127358
0.0127358
0.0127359
0.0127359
0.0127359
0.0127359
0.012736
0.012736
0.012736
0.012736
0.012736
0.012736
0.012736
0.012736
0.012736
0.012736
0.0127359
0.0127359
0.0127359
0.0127359
0.0127358
0.0127358
0.0127358
0.0127357
0.0127357
0.0127356
0.0127356
0.0127355
0.0127354
0.0127354
0.0127353
0.0127352
0.0127351
0.012735
0.0127349
0.0127348
0.0127347
0.0127346
0.0127345
0.0127344
0.0127342
0.0127341
0.0127339
0.0127338
0.0127336
0.0127334
0.0127332
0.0127331
0.0127328
0.0127326
0.0127324
0.0127322
0.0127319
0.0127316
0.0127314
0.0127311
0.0127307
0.0127304
0.01273
0.0127297
0.0127293
0.0127288
0.0127284
0.0127279
0.0127274
0.0127269
0.0127263
0.0127257
0.012725
0.0127243
0.0127235
0.0127227
0.0127218
0.0127209
0.0127198
0.0127187
0.0127174
0.0127161
0.0127146
0.012713
0.0127112
0.0127092
0.0127069
0.0127045
0.0127017
0.0126986
0.0126951
0.0126912
0.0126869
0.012682
0.0126764
0.0126702
0.0126633
0.0126555
0.0126468
0.0126372
0.0126264
0.0126145
0.0126013
0.0125868
0.012571
0.0125537
0.012535
0.0125147
0.012493
0.0124697
0.012445
0.0124189
0.0123914
0.0123627
0.0123328
0.0123021
0.0122706
0.0145657
0.0146022
0.0146355
0.0146673
0.0146974
0.0147259
0.0147525
0.0147775
0.0148007
0.0148222
0.014842
0.0148601
0.0148767
0.0148919
0.0149056
0.0149179
0.014929
0.014939
0.0149479
0.0149559
0.014963
0.0149692
0.0149748
0.0149797
0.0149841
0.014988
0.0149914
0.0149945
0.0149972
0.0149996
0.0150017
0.0150036
0.0150054
0.0150069
0.0150083
0.0150096
0.0150108
0.0150118
0.0150128
0.0150137
0.0150145
0.0150153
0.015016
0.0150166
0.0150172
0.0150178
0.0150183
0.0150188
0.0150193
0.0150198
0.0150202
0.0150206
0.0150209
0.0150213
0.0150216
0.0150219
0.0150222
0.0150225
0.0150227
0.015023
0.0150232
0.0150234
0.0150236
0.0150238
0.015024
0.0150242
0.0150244
0.0150245
0.0150247
0.0150248
0.0150249
0.0150251
0.0150252
0.0150253
0.0150254
0.0150255
0.0150256
0.0150257
0.0150258
0.0150259
0.0150259
0.015026
0.0150261
0.0150261
0.0150262
0.0150262
0.0150263
0.0150263
0.0150264
0.0150264
0.0150264
0.0150264
0.0150265
0.0150265
0.0150265
0.0150265
0.0150265
0.0150265
0.0150265
0.0150265
0.0150265
0.0150265
0.0150265
0.0150265
0.0150265
0.0150264
0.0150264
0.0150264
0.0150263
0.0150263
0.0150263
0.0150262
0.0150262
0.0150261
0.015026
0.015026
0.0150259
0.0150258
0.0150257
0.0150257
0.0150256
0.0150255
0.0150254
0.0150253
0.0150252
0.015025
0.0150249
0.0150248
0.0150246
0.0150245
0.0150243
0.0150242
0.015024
0.0150238
0.0150236
0.0150234
0.0150232
0.015023
0.0150228
0.0150225
0.0150222
0.015022
0.0150217
0.0150214
0.015021
0.0150207
0.0150203
0.0150199
0.0150195
0.0150191
0.0150186
0.0150181
0.0150176
0.015017
0.0150164
0.0150158
0.0150151
0.0150144
0.0150136
0.0150127
0.0150118
0.0150108
0.0150097
0.0150085
0.0150072
0.0150058
0.0150042
0.0150025
0.0150005
0.0149984
0.0149959
0.0149932
0.0149902
0.0149868
0.014983
0.0149786
0.0149737
0.0149682
0.014962
0.014955
0.0149471
0.0149382
0.0149283
0.0149172
0.0149049
0.0148912
0.014876
0.0148593
0.014841
0.014821
0.0147993
0.0147758
0.0147504
0.0147232
0.0146942
0.0146634
0.0146308
0.0145965
0.0145607
0.0145234
0.0168829
0.0169245
0.0169621
0.0169976
0.0170309
0.0170621
0.0170911
0.0171181
0.017143
0.0171659
0.0171869
0.0172061
0.0172235
0.0172393
0.0172535
0.0172662
0.0172776
0.0172878
0.0172969
0.0173049
0.0173121
0.0173184
0.0173239
0.0173288
0.0173331
0.017337
0.0173403
0.0173433
0.0173459
0.0173482
0.0173503
0.0173522
0.0173538
0.0173553
0.0173567
0.0173579
0.017359
0.01736
0.0173609
0.0173618
0.0173626
0.0173633
0.017364
0.0173646
0.0173652
0.0173657
0.0173662
0.0173667
0.0173672
0.0173676
0.017368
0.0173684
0.0173687
0.0173691
0.0173694
0.0173697
0.01737
0.0173702
0.0173705
0.0173707
0.0173709
0.0173712
0.0173714
0.0173716
0.0173717
0.0173719
0.0173721
0.0173722
0.0173724
0.0173725
0.0173726
0.0173728
0.0173729
0.017373
0.0173731
0.0173732
0.0173733
0.0173734
0.0173735
0.0173735
0.0173736
0.0173737
0.0173737
0.0173738
0.0173739
0.0173739
0.017374
0.017374
0.017374
0.0173741
0.0173741
0.0173741
0.0173741
0.0173742
0.0173742
0.0173742
0.0173742
0.0173742
0.0173742
0.0173742
0.0173742
0.0173742
0.0173742
0.0173742
0.0173741
0.0173741
0.0173741
0.017374
0.017374
0.017374
0.0173739
0.0173739
0.0173738
0.0173738
0.0173737
0.0173737
0.0173736
0.0173735
0.0173734
0.0173734
0.0173733
0.0173732
0.0173731
0.017373
0.0173729
0.0173727
0.0173726
0.0173725
0.0173723
0.0173722
0.017372
0.0173719
0.0173717
0.0173715
0.0173714
0.0173712
0.0173709
0.0173707
0.0173705
0.0173703
0.01737
0.0173697
0.0173694
0.0173691
0.0173688
0.0173685
0.0173681
0.0173677
0.0173673
0.0173669
0.0173665
0.017366
0.0173655
0.0173649
0.0173644
0.0173638
0.0173631
0.0173624
0.0173616
0.0173608
0.0173599
0.017359
0.0173579
0.0173568
0.0173556
0.0173542
0.0173527
0.017351
0.0173491
0.0173471
0.0173447
0.0173421
0.0173392
0.0173358
0.017332
0.0173278
0.0173229
0.0173174
0.0173112
0.0173042
0.0172962
0.0172872
0.0172771
0.0172658
0.0172531
0.017239
0.0172232
0.0172058
0.0171866
0.0171655
0.0171424
0.0171173
0.01709
0.0170605
0.0170289
0.0169949
0.0169588
0.0169204
0.0168798
0.0168371
0.0192275
0.0192736
0.0193151
0.0193539
0.01939
0.0194237
0.0194548
0.0194835
0.0195099
0.019534
0.0195561
0.019576
0.0195941
0.0196104
0.019625
0.019638
0.0196496
0.01966
0.0196691
0.0196772
0.0196843
0.0196906
0.0196961
0.0197009
0.0197051
0.0197089
0.0197121
0.019715
0.0197175
0.0197198
0.0197218
0.0197235
0.0197251
0.0197265
0.0197278
0.019729
0.01973
0.019731
0.0197319
0.0197327
0.0197334
0.0197341
0.0197347
0.0197353
0.0197359
0.0197364
0.0197369
0.0197374
0.0197378
0.0197382
0.0197386
0.0197389
0.0197393
0.0197396
0.0197399
0.0197402
0.0197405
0.0197407
0.019741
0.0197412
0.0197414
0.0197416
0.0197418
0.019742
0.0197422
0.0197424
0.0197425
0.0197427
0.0197428
0.019743
0.0197431
0.0197432
0.0197433
0.0197434
0.0197435
0.0197436
0.0197437
0.0197438
0.0197439
0.019744
0.019744
0.0197441
0.0197442
0.0197442
0.0197443
0.0197443
0.0197444
0.0197444
0.0197444
0.0197445
0.0197445
0.0197445
0.0197446
0.0197446
0.0197446
0.0197446
0.0197446
0.0197446
0.0197446
0.0197446
0.0197446
0.0197446
0.0197446
0.0197446
0.0197445
0.0197445
0.0197445
0.0197445
0.0197444
0.0197444
0.0197443
0.0197443
0.0197443
0.0197442
0.0197441
0.0197441
0.019744
0.0197439
0.0197439
0.0197438
0.0197437
0.0197436
0.0197435
0.0197434
0.0197433
0.0197432
0.0197431
0.0197429
0.0197428
0.0197427
0.0197425
0.0197423
0.0197422
0.019742
0.0197418
0.0197416
0.0197414
0.0197412
0.019741
0.0197407
0.0197405
0.0197402
0.01974
0.0197397
0.0197394
0.019739
0.0197387
0.0197383
0.0197379
0.0197375
0.0197371
0.0197366
0.0197362
0.0197356
0.0197351
0.0197345
0.0197339
0.0197332
0.0197325
0.0197317
0.0197309
0.01973
0.019729
0.0197279
0.0197267
0.0197254
0.019724
0.0197224
0.0197206
0.0197186
0.0197164
0.0197139
0.019711
0.0197078
0.0197041
0.0196999
0.0196952
0.0196898
0.0196836
0.0196766
0.0196686
0.0196596
0.0196494
0.0196379
0.0196249
0.0196104
0.0195942
0.0195762
0.0195563
0.0195342
0.01951
0.0194834
0.0194545
0.019423
0.019389
0.0193524
0.019313
0.019271
0.0192261
0.0191785
0.0215683
0.0216183
0.021663
0.0217046
0.0217431
0.0217787
0.0218116
0.0218417
0.0218693
0.0218944
0.0219172
0.0219378
0.0219563
0.021973
0.0219878
0.022001
0.0220128
0.0220231
0.0220323
0.0220403
0.0220474
0.0220536
0.022059
0.0220637
0.0220678
0.0220714
0.0220746
0.0220774
0.0220798
0.0220819
0.0220838
0.0220855
0.022087
0.0220883
0.0220895
0.0220906
0.0220916
0.0220925
0.0220933
0.0220941
0.0220948
0.0220954
0.022096
0.0220966
0.0220971
0.0220976
0.0220981
0.0220985
0.0220989
0.0220993
0.0220997
0.0221
0.0221003
0.0221006
0.0221009
0.0221012
0.0221015
0.0221017
0.022102
0.0221022
0.0221024
0.0221026
0.0221028
0.022103
0.0221031
0.0221033
0.0221035
0.0221036
0.0221038
0.0221039
0.022104
0.0221041
0.0221042
0.0221044
0.0221045
0.0221045
0.0221046
0.0221047
0.0221048
0.0221049
0.0221049
0.022105
0.0221051
0.0221051
0.0221052
0.0221052
0.0221053
0.0221053
0.0221053
0.0221054
0.0221054
0.0221054
0.0221055
0.0221055
0.0221055
0.0221055
0.0221055
0.0221055
0.0221055
0.0221055
0.0221055
0.0221055
0.0221055
0.0221055
0.0221054
0.0221054
0.0221054
0.0221054
0.0221053
0.0221053
0.0221052
0.0221052
0.0221051
0.0221051
0.022105
0.022105
0.0221049
0.0221048
0.0221048
0.0221047
0.0221046
0.0221045
0.0221044
0.0221043
0.0221042
0.0221041
0.022104
0.0221039
0.0221037
0.0221036
0.0221034
0.0221033
0.0221031
0.022103
0.0221028
0.0221026
0.0221024
0.0221022
0.022102
0.0221017
0.0221015