/*--------------------------------*- C++ -*----------------------------------*\
| =========                 |                                                 |
| \\      /  F ield         | OpenFOAM: The Open Source CFD Toolbox           |
|  \\    /   O peration     | Version:  2412                                  |
|   \\  /    A nd           | Website:  www.openfoam.com                      |
|    \\/     M anipulation  |                                                 |
\*---------------------------------------------------------------------------*/
FoamFile
{
    version     2.0;
    format      ascii;
    arch        "LSB;label=32;scalar=64";
    class       surfaceScalarField;
    location    "300";
    object      phi;
}
// * * * * * * * * * * * * * * * * * * * * * * * * * * * * * * * * * * * * * //

dimensions      [0 3 -1 0 0 0 0];

oriented        oriented;

internalField   nonuniform List<scalar> 
79600
(
-1.6019e-12
1.57598e-12
-6.70564e-12
5.10591e-12
-1.39669e-11
7.26044e-12
-2.19373e-11
7.97298e-12
-2.959e-11
7.65452e-12
-3.62829e-11
6.69424e-12
-4.16806e-11
5.39782e-12
-4.56629e-11
3.98204e-12
-4.82553e-11
2.59175e-12
-4.95716e-11
1.31719e-12
-4.97782e-11
2.0722e-13
-4.90626e-11
-7.15232e-13
-4.76142e-11
-1.44721e-12
-4.56149e-11
-1.99939e-12
-4.32263e-11
-2.38856e-12
-4.05892e-11
-2.63685e-12
-3.78198e-11
-2.76763e-12
-3.50136e-11
-2.80503e-12
-3.22443e-11
-2.76941e-12
-2.95658e-11
-2.67846e-12
-2.70161e-11
-2.54926e-12
-2.46198e-11
-2.39531e-12
-2.23924e-11
-2.22714e-12
-2.03379e-11
-2.05341e-12
-1.84579e-11
-1.88045e-12
-1.67462e-11
-1.71176e-12
-1.51948e-11
-1.55132e-12
-1.37932e-11
-1.40081e-12
-1.25308e-11
-1.26192e-12
-1.13961e-11
-1.135e-12
-1.03773e-11
-1.0194e-12
-9.46305e-12
-9.14574e-13
-8.64323e-12
-8.20681e-13
-7.90732e-12
-7.36143e-13
-7.24649e-12
-6.60725e-13
-6.65304e-12
-5.93927e-13
-6.11854e-12
-5.34058e-13
-5.63796e-12
-4.81521e-13
-5.20307e-12
-4.33584e-13
-4.81133e-12
-3.9288e-13
-4.4557e-12
-3.55081e-13
-4.13273e-12
-3.22016e-13
-3.84026e-12
-2.93502e-13
-3.57294e-12
-2.66605e-13
-3.32854e-12
-2.43132e-13
-3.10589e-12
-2.23233e-13
-2.90199e-12
-2.04697e-13
-2.71445e-12
-1.87657e-13
-2.542e-12
-1.72786e-13
-2.38313e-12
-1.59422e-13
-2.23641e-12
-1.47051e-13
-2.1007e-12
-1.35797e-13
-1.97485e-12
-1.25638e-13
-1.85786e-12
-1.1649e-13
-1.7491e-12
-1.08385e-13
-1.64808e-12
-1.01204e-13
-1.55401e-12
-9.45966e-14
-1.46612e-12
-8.84233e-14
-1.38381e-12
-8.2706e-14
-1.30668e-12
-7.74002e-14
-1.23428e-12
-7.24429e-14
-1.16618e-12
-6.79073e-14
-1.10208e-12
-6.39049e-14
-1.04178e-12
-6.04233e-14
-9.85043e-13
-5.72109e-14
-9.31551e-13
-5.40716e-14
-8.80883e-13
-5.10223e-14
-8.32709e-13
-4.82536e-14
-7.86908e-13
-4.58284e-14
-7.43486e-13
-4.36292e-14
-7.02274e-13
-4.14717e-14
-6.63036e-13
-3.94486e-14
-6.25534e-13
-3.76283e-14
-5.89727e-13
-3.60633e-14
-5.55482e-13
-3.45442e-14
-5.22708e-13
-3.3037e-14
-4.91212e-13
-3.16003e-14
-4.60869e-13
-3.03619e-14
-4.31648e-13
-2.9327e-14
-4.03609e-13
-2.83369e-14
-3.7663e-13
-2.72826e-14
-3.50501e-13
-2.62582e-14
-3.2511e-13
-2.53761e-14
-3.00438e-13
-2.46749e-14
-2.76489e-13
-2.4076e-14
-2.53194e-13
-2.34604e-14
-2.30462e-13
-2.28262e-14
-2.08269e-13
-2.21973e-14
-1.86569e-13
-2.15758e-14
-1.65241e-13
-2.1083e-14
-1.44209e-13
-2.08706e-14
-1.23533e-13
-2.08637e-14
-1.03277e-13
-2.07531e-14
-8.33033e-14
-2.03128e-14
-6.33704e-14
-1.96783e-14
-4.34094e-14
-1.92316e-14
-2.35606e-14
-1.9198e-14
-3.95258e-15
-1.94458e-14
1.54844e-14
-1.97059e-14
3.49441e-14
-1.98775e-14
5.4517e-14
-1.99858e-14
7.41564e-14
-1.99793e-14
9.38901e-14
-1.98103e-14
1.13888e-13
-1.96533e-14
1.34242e-13
-1.9808e-14
1.54834e-13
-2.0349e-14
1.75518e-13
-2.10109e-14
1.96358e-13
-2.14778e-14
2.17597e-13
-2.17278e-14
2.39424e-13
-2.20063e-14
2.61828e-13
-2.2501e-14
2.84713e-13
-2.31271e-14
3.08088e-13
-2.37084e-14
3.32092e-13
-2.42317e-14
3.56841e-13
-2.48626e-14
3.82344e-13
-2.56825e-14
4.08606e-13
-2.65655e-14
4.35743e-13
-2.7377e-14
4.63933e-13
-2.8186e-14
4.93264e-13
-2.91869e-14
5.23714e-13
-3.04452e-14
5.55268e-13
-3.18137e-14
5.88042e-13
-3.31294e-14
6.22241e-13
-3.44139e-14
6.58056e-13
-3.58136e-14
6.9561e-13
-3.74218e-14
7.34961e-13
-3.92171e-14
7.76182e-13
-4.11463e-14
8.19398e-13
-4.32102e-14
8.64764e-13
-4.54102e-14
9.1251e-13
-4.77232e-14
9.62949e-13
-5.02183e-14
1.01632e-12
-5.30402e-14
1.07273e-12
-5.62264e-14
1.13232e-12
-5.9682e-14
1.19533e-12
-6.33113e-14
1.26214e-12
-6.71003e-14
1.33323e-12
-7.11367e-14
1.40898e-12
-7.55371e-14
1.4897e-12
-8.03805e-14
1.57577e-12
-8.57944e-14
1.66764e-12
-9.18955e-14
1.76584e-12
-9.86224e-14
1.87101e-12
-1.05882e-13
1.98379e-12
-1.13637e-13
2.10485e-12
-1.2179e-13
2.23524e-12
-1.30401e-13
2.37612e-12
-1.39914e-13
2.52847e-12
-1.50944e-13
2.69308e-12
-1.63827e-13
2.871e-12
-1.78381e-13
3.06387e-12
-1.94261e-13
3.27369e-12
-2.11412e-13
3.50242e-12
-2.30032e-13
3.75214e-12
-2.50462e-13
4.02528e-12
-2.73164e-13
4.32481e-12
-2.98722e-13
4.65391e-12
-3.27836e-13
5.01586e-12
-3.60988e-13
5.41449e-12
-3.98285e-13
5.85457e-12
-4.39929e-13
6.34158e-12
-4.86657e-13
6.88144e-12
-5.39507e-13
7.48057e-12
-5.99274e-13
8.14619e-12
-6.66449e-13
8.88662e-12
-7.41546e-13
9.7113e-12
-8.25454e-13
1.06303e-11
-9.19383e-13
1.16544e-11
-1.02428e-12
1.2795e-11
-1.14086e-12
1.40647e-11
-1.26974e-12
1.54759e-11
-1.41116e-12
1.70414e-11
-1.56512e-12
1.87733e-11
-1.73126e-12
2.06822e-11
-1.90819e-12
2.27767e-11
-2.09366e-12
2.50613e-11
-2.28409e-12
2.75355e-11
-2.47392e-12
3.01921e-11
-2.65608e-12
3.30138e-11
-2.82123e-12
3.59717e-11
-2.95736e-12
3.90219e-11
-3.04979e-12
4.21022e-11
-3.08036e-12
4.51303e-11
-3.02828e-12
4.80004e-11
-2.87029e-12
5.0582e-11
-2.58155e-12
5.27194e-11
-2.13723e-12
5.42337e-11
-1.51388e-12
5.49279e-11
-6.93554e-13
5.4595e-11
3.33165e-13
5.30338e-11
1.56139e-12
5.00689e-11
2.96448e-12
4.55834e-11
4.48506e-12
3.95616e-11
6.02179e-12
3.21473e-11
7.41457e-12
2.37231e-11
8.42523e-12
1.50028e-11
8.72094e-12
7.11773e-12
7.88503e-12
1.63288e-12
5.48311e-12
1.63057e-12
-5.54834e-12
7.1246e-12
-1.85221e-11
1.80803e-11
-3.57289e-11
2.44665e-11
-5.43944e-11
2.66378e-11
-7.24323e-11
2.56924e-11
-8.8445e-11
2.2706e-11
-1.0162e-10
1.85729e-11
-1.11599e-10
1.39621e-11
-1.18356e-10
9.35013e-12
-1.2209e-10
5.04909e-12
-1.23134e-10
1.25005e-12
-1.21895e-10
-1.95508e-12
-1.18804e-10
-4.53834e-12
-1.14283e-10
-6.51997e-12
-1.0872e-10
-7.95075e-12
-1.02462e-10
-8.89629e-12
-9.58e-11
-9.43119e-12
-8.89739e-11
-9.6312e-12
-8.21747e-11
-9.56793e-12
-7.55486e-11
-9.30541e-12
-6.92e-11
-8.89924e-12
-6.31991e-11
-8.39596e-12
-5.75926e-11
-7.83564e-12
-5.23988e-11
-7.24671e-12
-4.76251e-11
-6.65342e-12
-4.32642e-11
-6.07273e-12
-3.92995e-11
-5.51629e-12
-3.57087e-11
-4.99146e-12
-3.24666e-11
-4.50401e-12
-2.95455e-11
-4.05532e-12
-2.69176e-11
-3.64591e-12
-2.45564e-11
-3.27542e-12
-2.24351e-11
-2.94113e-12
-2.05297e-11
-2.64127e-12
-1.88172e-11
-2.37239e-12
-1.72775e-11
-2.13385e-12
-1.58908e-11
-1.91997e-12
-1.4641e-11
-1.73086e-12
-1.35137e-11
-1.56277e-12
-1.24932e-11
-1.41261e-12
-1.15694e-11
-1.27955e-12
-1.07311e-11
-1.16105e-12
-9.96845e-12
-1.05542e-12
-9.27432e-12
-9.61259e-13
-8.64072e-12
-8.77256e-13
-8.06061e-12
-8.02144e-13
-7.52934e-12
-7.35002e-13
-7.04222e-12
-6.75026e-13
-6.59403e-12
-6.21055e-13
-6.18067e-12
-5.72317e-13
-5.7992e-12
-5.28511e-13
-5.44661e-12
-4.89001e-13
-5.11988e-12
-4.52952e-13
-4.81654e-12
-4.20046e-13
-4.53456e-12
-3.90272e-13
-4.27208e-12
-3.63414e-13
-4.02737e-12
-3.39009e-13
-3.79886e-12
-3.1672e-13
-3.58511e-12
-2.9636e-13
-3.38491e-12
-2.77739e-13
-3.19717e-12
-2.60568e-13
-3.02085e-12
-2.4467e-13
-2.85496e-12
-2.30042e-13
-2.69863e-12
-2.16724e-13
-2.55118e-12
-2.04621e-13
-2.41205e-12
-1.9353e-13
-2.2806e-12
-1.83146e-13
-2.15598e-12
-1.7337e-13
-2.03753e-12
-1.6431e-13
-1.92492e-12
-1.56082e-13
-1.81796e-12
-1.4856e-13
-1.71626e-12
-1.41571e-13
-1.61928e-12
-1.35037e-13
-1.52653e-12
-1.28982e-13
-1.43774e-12
-1.23386e-13
-1.35272e-12
-1.18224e-13
-1.27115e-12
-1.13322e-13
-1.19273e-12
-1.08767e-13
-1.11717e-12
-1.04619e-13
-1.04449e-12
-1.00975e-13
-9.7455e-13
-9.76516e-14
-9.0689e-13
-9.43778e-14
-8.41182e-13
-9.12238e-14
-7.77309e-13
-8.83338e-14
-7.15273e-13
-8.5769e-14
-6.55015e-13
-8.35337e-14
-5.9624e-13
-8.15337e-14
-5.3872e-13
-7.96912e-14
-4.82503e-13
-7.79709e-14
-4.27497e-13
-7.629e-14
-3.73288e-13
-7.46816e-14
-3.19617e-13
-7.34197e-14
-2.66646e-13
-7.26664e-14
-2.14579e-13
-7.21715e-14
-1.63268e-13
-7.15642e-14
-1.12306e-13
-7.07947e-14
-6.14034e-14
-7.01209e-14
-1.05733e-14
-6.97599e-14
4.00829e-14
-6.96854e-14
9.07049e-14
-6.97982e-14
1.41551e-13
-7.0137e-14
1.92631e-13
-7.07496e-14
2.43805e-13
-7.14691e-14
2.95201e-13
-7.20491e-14
3.4724e-13
-7.25119e-14
4.00203e-13
-7.31815e-14
4.54009e-13
-7.43121e-14
5.08483e-13
-7.5793e-14
5.63721e-13
-7.73327e-14
6.20088e-13
-7.88278e-14
6.77909e-13
-8.04409e-14
7.37225e-13
-8.23376e-14
7.97926e-13
-8.45006e-14
8.60061e-13
-8.68047e-14
9.23943e-13
-8.92431e-14
9.89909e-13
-9.19359e-14
1.05811e-12
-9.49328e-14
1.12861e-12
-9.81353e-14
1.20155e-12
-1.01453e-13
1.27725e-12
-1.04961e-13
1.35598e-12
-1.08846e-13
1.43789e-12
-1.13223e-13
1.5231e-12
-1.18042e-13
1.61189e-12
-1.2319e-13
1.7047e-12
-1.28619e-13
1.80193e-12
-1.34392e-13
1.90382e-12
-1.40645e-13
2.0106e-12
-1.47484e-13
2.12265e-12
-1.54972e-13
2.24046e-12
-1.63129e-13
2.36446e-12
-1.71881e-13
2.49516e-12
-1.81156e-13
2.63325e-12
-1.91057e-13
2.77936e-12
-2.0181e-13
2.93409e-12
-2.13625e-13
3.09805e-12
-2.2661e-13
3.27187e-12
-2.40732e-13
3.45638e-12
-2.55943e-13
3.65258e-12
-2.72325e-13
3.86158e-12
-2.89993e-13
4.08476e-12
-3.09113e-13
4.32354e-12
-3.30019e-13
4.57909e-12
-3.53022e-13
4.85284e-12
-3.78384e-13
5.14648e-12
-4.06454e-13
5.46169e-12
-4.37418e-13
5.80042e-12
-4.71171e-13
6.16537e-12
-5.07647e-13
6.55992e-12
-5.47282e-13
6.98748e-12
-5.91143e-13
7.45107e-12
-6.40287e-13
7.95406e-12
-6.95244e-13
8.50086e-12
-7.56423e-13
9.09652e-12
-8.24535e-13
9.74658e-12
-9.005e-13
1.04573e-11
-9.85157e-13
1.12359e-11
-1.07935e-12
1.20911e-11
-1.18452e-12
1.30323e-11
-1.30268e-12
1.40696e-11
-1.43571e-12
1.52145e-11
-1.58523e-12
1.64804e-11
-1.7531e-12
1.78829e-11
-1.9417e-12
1.9439e-11
-2.1539e-12
2.11674e-11
-2.39278e-12
2.30885e-11
-2.66107e-12
2.52256e-11
-2.96131e-12
2.76038e-11
-3.29659e-12
3.02502e-11
-3.6699e-12
3.31935e-11
-4.08355e-12
3.64636e-11
-4.5395e-12
4.00907e-11
-5.0385e-12
4.41045e-11
-5.57955e-12
4.85327e-11
-6.1601e-12
5.33982e-11
-6.77457e-12
5.87178e-11
-7.41371e-12
6.44978e-11
-8.06417e-12
7.07298e-11
-8.70638e-12
7.73869e-11
-9.31393e-12
8.44171e-11
-9.85275e-12
9.17381e-11
-1.02797e-11
9.92301e-11
-1.05426e-11
1.06729e-10
-1.05795e-11
1.1402e-10
-1.03196e-11
1.20834e-10
-9.68502e-12
1.26846e-10
-8.59404e-12
1.31675e-10
-6.96695e-12
1.34894e-10
-4.73276e-12
1.36041e-10
-1.84116e-12
1.3465e-10
1.7242e-12
1.30285e-10
5.92734e-12
1.22593e-10
1.0657e-11
1.11378e-10
1.56993e-11
9.66954e-11
2.07034e-11
7.8963e-11
2.5145e-11
5.90991e-11
2.82881e-11
3.86562e-11
2.91643e-11
1.99237e-11
2.66208e-11
5.90788e-12
1.95045e-11
7.53701e-12
-8.36833e-12
1.54917e-11
-2.68092e-11
3.65228e-11
-5.06229e-11
4.82811e-11
-7.62651e-11
5.22792e-11
-1.01101e-10
5.05292e-11
-1.23324e-10
4.493e-11
-1.41834e-10
3.70809e-11
-1.56096e-10
2.82227e-11
-1.66009e-10
1.92631e-11
-1.7178e-10
1.08216e-11
-1.73817e-10
3.28639e-12
-1.72638e-10
-3.1332e-12
-1.68811e-10
-8.36337e-12
-1.62906e-10
-1.24252e-11
-1.55454e-10
-1.5401e-11
-1.46936e-10
-1.74131e-11
-1.37767e-10
-1.8601e-11
-1.28288e-10
-1.91086e-11
-1.1878e-10
-1.90758e-11
-1.09455e-10
-1.86294e-11
-1.00473e-10
-1.7881e-11
-9.19446e-11
-1.69246e-11
-8.3941e-11
-1.58392e-11
-7.65e-11
-1.46864e-11
-6.96381e-11
-1.35155e-11
-6.33496e-11
-1.23612e-11
-5.76161e-11
-1.12492e-11
-5.24111e-11
-1.01973e-11
-4.77004e-11
-9.21513e-12
-4.34476e-11
-8.30858e-12
-3.9615e-11
-7.4789e-12
-3.61649e-11
-6.72586e-12
-3.30611e-11
-6.04514e-12
-3.02687e-11
-5.43318e-12
-2.77577e-11
-4.88551e-12
-2.54952e-11
-4.39482e-12
-2.34578e-11
-3.95832e-12
-2.16191e-11
-3.56892e-12
-1.9958e-11
-3.2234e-12
-1.84552e-11
-2.91492e-12
-1.70933e-11
-2.64147e-12
-1.58568e-11
-2.39797e-12
-1.47318e-11
-2.17988e-12
-1.37068e-11
-1.98605e-12
-1.27711e-11
-1.81345e-12
-1.19151e-11
-1.65859e-12
-1.11308e-11
-1.51988e-12
-1.04109e-11
-1.39563e-12
-9.74838e-12
-1.28375e-12
-9.13772e-12
-1.18289e-12
-8.57391e-12
-1.09211e-12
-8.05227e-12
-1.01019e-12
-7.56892e-12
-9.36008e-13
-7.12056e-12
-8.6871e-13
-6.70395e-12
-8.07564e-13
-6.31606e-12
-7.51891e-13
-5.95434e-12
-7.01125e-13
-5.61657e-12
-6.54764e-13
-5.30057e-12
-6.12384e-13
-5.00441e-12
-5.73636e-13
-4.7266e-12
-5.38221e-13
-4.46579e-12
-5.05758e-13
-4.22065e-12
-4.75868e-13
-3.98976e-12
-4.4826e-13
-3.77187e-12
-4.22841e-13
-3.56598e-12
-3.99532e-13
-3.37131e-12
-3.78112e-13
-3.18696e-12
-3.58196e-13
-3.01203e-12
-3.39683e-13
-2.8457e-12
-3.2255e-13
-2.68757e-12
-3.06897e-13
-2.53709e-12
-2.92459e-13
-2.39363e-12
-2.79029e-13
-2.25652e-12
-2.66474e-13
-2.12527e-12
-2.5483e-13
-1.99948e-12
-2.44162e-13
-1.87889e-12
-2.34272e-13
-1.76307e-12
-2.25025e-13
-1.6516e-12
-2.16431e-13
-1.54414e-12
-2.08589e-13
-1.44044e-12
-2.01481e-13
-1.34025e-12
-1.94878e-13
-1.24319e-12
-1.88653e-13
-1.14893e-12
-1.82867e-13
-1.05731e-12
-1.77584e-13
-9.68135e-13
-1.72794e-13
-8.81111e-13
-1.6845e-13
-7.96019e-13
-1.64586e-13
-7.12801e-13
-1.61252e-13
-6.31388e-13
-1.58275e-13
-5.51477e-13
-1.55383e-13
-4.72593e-13
-1.52595e-13
-3.94443e-13
-1.50243e-13
-3.17099e-13
-1.48551e-13
-2.4072e-13
-1.4739e-13
-1.65191e-13
-1.46473e-13
-9.01439e-14
-1.45693e-13
-1.52862e-14
-1.45159e-13
5.94508e-14
-1.44926e-13
1.34167e-13
-1.44891e-13
2.09167e-13
-1.45058e-13
2.84703e-13
-1.45663e-13
3.60739e-13
-1.46868e-13
4.37171e-13
-1.48493e-13
5.14165e-13
-1.50211e-13
5.92132e-13
-1.51954e-13
6.71396e-13
-1.53975e-13
7.52014e-13
-1.56515e-13
8.33967e-13
-1.59523e-13
9.17424e-13
-1.62802e-13
1.00277e-12
-1.66275e-13
1.09032e-12
-1.70087e-13
1.18013e-12
-1.74403e-13
1.2722e-12
-1.79206e-13
1.36677e-12
-1.84362e-13
1.46431e-12
-1.89863e-13
1.56521e-12
-1.9586e-13
1.66962e-12
-2.02479e-13
1.77763e-12
-2.09692e-13
1.88952e-12
-2.17387e-13
2.00577e-12
-2.25577e-13
2.12677e-12
-2.34436e-13
2.25284e-12
-2.44127e-13
2.38433e-12
-2.5468e-13
2.52169e-12
-2.6603e-13
2.66546e-12
-2.78171e-13
2.81607e-12
-2.91237e-13
2.97392e-12
-3.05367e-13
3.13964e-12
-3.20651e-13
3.31396e-12
-3.3723e-13
3.49758e-12
-3.55245e-13
3.69114e-12
-3.74719e-13
3.89543e-12
-3.95651e-13
4.11136e-12
-4.18141e-13
4.33992e-12
-4.42416e-13
4.58223e-12
-4.68791e-13
4.8394e-12
-4.97521e-13
5.11265e-12
-5.28787e-13
5.40332e-12
-5.6284e-13
5.71287e-12
-5.99896e-13
6.04302e-12
-6.4008e-13
6.39581e-12
-6.83725e-13
6.77319e-12
-7.31294e-13
7.17746e-12
-7.83178e-13
7.61152e-12
-8.3999e-13
8.07829e-12
-9.02656e-13
8.58065e-12
-9.72022e-13
9.12172e-12
-1.04853e-12
9.70551e-12
-1.13247e-12
1.03369e-11
-1.22465e-12
1.10213e-11
-1.32653e-12
1.17642e-11
-1.4395e-12
1.25721e-11
-1.56489e-12
1.34524e-11
-1.7044e-12
1.44133e-11
-1.86013e-12
1.54639e-11
-2.03435e-12
1.66145e-11
-2.2292e-12
1.78771e-11
-2.44705e-12
1.92656e-11
-2.69103e-12
2.07954e-11
-2.96494e-12
2.24833e-11
-3.27285e-12
2.43485e-11
-3.61887e-12
2.64127e-11
-4.00734e-12
2.87007e-11
-4.44329e-12
3.12397e-11
-4.93255e-12
3.40594e-11
-5.48108e-12
3.71923e-11
-6.09449e-12
4.0674e-11
-6.77849e-12
4.45425e-11
-7.53846e-12
4.88377e-11
-8.37869e-12
5.36013e-11
-9.30241e-12
5.88741e-11
-1.03106e-11
6.4696e-11
-1.14007e-11
7.11028e-11
-1.25661e-11
7.8123e-11
-1.37944e-11
8.57748e-11
-1.50651e-11
9.40608e-11
-1.63495e-11
1.02962e-10
-1.76065e-11
1.1243e-10
-1.87819e-11
1.22383e-10
-1.98056e-11
1.32693e-10
-2.059e-11
1.4318e-10
-2.10294e-11
1.536e-10
-2.10004e-11
1.63644e-10
-2.03632e-11
1.72925e-10
-1.89662e-11
1.80984e-10
-1.66529e-11
1.87292e-10
-1.32739e-11
1.91261e-10
-8.70165e-12
1.92272e-10
-2.8523e-12
1.8971e-10
4.28606e-12
1.83018e-10
1.26196e-11
1.71769e-10
2.19054e-11
1.55765e-10
3.17039e-11
1.35147e-10
4.13224e-11
1.10532e-10
4.976e-11
8.31603e-11
5.56593e-11
5.50334e-11
5.72889e-11
2.90361e-11
5.26161e-11
9.01414e-12
3.95295e-11
1.65512e-11
-9.87731e-12
2.5371e-11
-3.14578e-11
5.81037e-11
-5.91364e-11
7.59608e-11
-8.88776e-11
8.20219e-11
-1.17752e-10
7.94038e-11
-1.43743e-10
7.09214e-11
-1.65596e-10
5.89328e-11
-1.82668e-10
4.52952e-11
-1.94797e-10
3.13911e-11
-2.02164e-10
1.81893e-11
-2.0519e-10
6.31255e-12
-2.04437e-10
-3.88748e-12
-2.00532e-10
-1.22689e-11
-1.94115e-10
-1.88423e-11
-1.85797e-10
-2.37191e-11
-1.76134e-10
-2.70768e-11
-1.65612e-10
-2.91233e-11
-1.54641e-10
-3.00802e-11
-1.43556e-10
-3.01621e-11
-1.32618e-10
-2.9567e-11
-1.22024e-10
-2.84733e-11
-1.11918e-10
-2.70307e-11
-1.02393e-10
-2.53648e-11
-9.35031e-11
-2.3576e-11
-8.52745e-11
-2.17436e-11
-7.77086e-11
-1.99265e-11
-7.079e-11
-1.81677e-11
-6.44905e-11
-1.64964e-11
-5.87746e-11
-1.4931e-11
-5.36016e-11
-1.34809e-11
-4.89301e-11
-1.21517e-11
-4.47149e-11
-1.09396e-11
-4.09162e-11
-9.84372e-12
-3.74931e-11
-8.85611e-12
-3.44078e-11
-7.96978e-12
-3.16266e-11
-7.17679e-12
-2.91168e-11
-6.4684e-12
-2.68504e-11
-5.83678e-12
-2.47992e-11
-5.27349e-12
-2.29429e-11
-4.77219e-12
-2.12581e-11
-4.32554e-12
-1.97263e-11
-3.92787e-12
-1.83334e-11
-3.57352e-12
-1.70633e-11
-3.25678e-12
-1.5902e-11
-2.97351e-12
-1.48393e-11
-2.7205e-12
-1.38655e-11
-2.4941e-12
-1.29709e-11
-2.29056e-12
-1.21474e-11
-2.10732e-12
-1.13884e-11
-1.94231e-12
-1.06873e-11
-1.79341e-12
-1.00384e-11
-1.65872e-12
-9.437e-12
-1.53685e-12
-8.87884e-12
-1.42649e-12
-8.36003e-12
-1.32626e-12
-7.8769e-12
-1.23496e-12
-7.42632e-12
-1.15171e-12
-7.00555e-12
-1.07572e-12
-6.61196e-12
-1.00616e-12
-6.24314e-12
-9.42408e-13
-5.89702e-12
-8.84056e-13
-5.57187e-12
-8.30658e-13
-5.26611e-12
-7.8167e-13
-4.97822e-12
-7.36496e-13
-4.70668e-12
-6.94779e-13
-4.45005e-12
-6.56298e-13
-4.20714e-12
-6.20884e-13
-3.97709e-12
-5.88255e-13
-3.75889e-12
-5.58016e-13
-3.55164e-12
-5.30027e-13
-3.35443e-12
-5.04185e-13
-3.16662e-12
-4.80355e-13
-2.98753e-12
-4.58295e-13
-2.81644e-12
-4.37703e-13
-2.65276e-12
-4.18634e-13
-2.49578e-12
-4.00968e-13
-2.3452e-12
-3.84747e-13
-2.20065e-12
-3.6977e-13
-2.06167e-12
-3.55857e-13
-1.92769e-12
-3.4295e-13
-1.79817e-12
-3.31012e-13
-1.6729e-12
-3.20026e-13
-1.55165e-12
-3.099e-13
-1.43405e-12
-3.00598e-13
-1.31977e-12
-2.92124e-13
-1.20849e-12
-2.84353e-13
-1.09989e-12
-2.7717e-13
-9.93731e-13
-2.70632e-13
-8.89744e-13
-2.6487e-13
-7.87759e-13
-2.59898e-13
-6.87698e-13
-2.5553e-13
-5.89318e-13
-2.5152e-13
-4.92169e-13
-2.4784e-13
-3.95915e-13
-2.44715e-13
-3.00495e-13
-2.42316e-13
-2.05931e-13
-2.40567e-13
-1.12052e-13
-2.39303e-13
-1.85122e-14
-2.38518e-13
7.49336e-14
-2.38278e-13
1.68343e-13
-2.38506e-13
2.61853e-13
-2.39042e-13
3.55819e-13
-2.39916e-13
4.50582e-13
-2.41364e-13
5.46227e-13
-2.43557e-13
6.42715e-13
-2.46383e-13
7.40192e-13
-2.49592e-13
8.39028e-13
-2.53119e-13
9.39589e-13
-2.57149e-13
1.04205e-12
-2.61856e-13
1.1465e-12
-2.67208e-13
1.25315e-12
-2.73069e-13
1.36234e-12
-2.79437e-13
1.47438e-12
-2.86481e-13
1.58943e-12
-2.94326e-13
1.70769e-12
-3.02887e-13
1.82953e-12
-3.12044e-13
1.95541e-12
-3.21868e-13
2.08572e-12
-3.32582e-13
2.2207e-12
-3.44353e-13
2.36056e-12
-3.57149e-13
2.50573e-12
-3.70891e-13
2.6567e-12
-3.85641e-13
2.81402e-12
-4.01558e-13
2.97822e-12
-4.18782e-13
3.14979e-12
-4.37387e-13
3.32925e-12
-4.57436e-13
3.51718e-12
-4.79078e-13
3.71417e-12
-5.0247e-13
3.92093e-12
-5.27672e-13
4.13838e-12
-5.54801e-13
4.36745e-12
-5.84116e-13
4.60906e-12
-6.15881e-13
4.86412e-12
-6.5029e-13
5.13364e-12
-6.87506e-13
5.41875e-12
-7.27696e-13
5.72083e-12
-7.71129e-13
6.04136e-12
-8.18191e-13
6.38188e-12
-8.69276e-13
6.74426e-12
-9.24842e-13
7.13041e-12
-9.85397e-13
7.54237e-12
-1.05136e-12
7.98244e-12
-1.12328e-12
8.45302e-12
-1.20192e-12
8.95674e-12
-1.28783e-12
9.4969e-12
-1.38156e-12
1.00774e-11
-1.48407e-12
1.07026e-11
-1.59678e-12
1.13766e-11
-1.72121e-12
1.2104e-11
-1.85864e-12
1.28902e-11
-2.01031e-12
1.37418e-11
-2.17796e-12
1.46657e-11
-2.36369e-12
1.56698e-11
-2.56978e-12
1.6763e-11
-2.79874e-12
1.79557e-11
-3.05357e-12
1.92594e-11
-3.33802e-12
2.06867e-11
-3.65618e-12
2.22518e-11
-4.0122e-12
2.39714e-11
-4.41072e-12
2.5864e-11
-4.85739e-12
2.79507e-11
-5.3587e-12
3.02546e-11
-5.92165e-12
3.28016e-11
-6.55361e-12
3.56208e-11
-7.26237e-12
3.87449e-11
-8.05643e-12
4.22093e-11
-8.94504e-12
4.60522e-11
-9.9373e-12
5.03156e-11
-1.10418e-11
5.50437e-11
-1.22666e-11
6.02824e-11
-1.3618e-11
6.60793e-11
-1.50998e-11
7.24808e-11
-1.67124e-11
7.95305e-11
-1.84507e-11
8.72668e-11
-2.03023e-11
9.57184e-11
-2.22459e-11
1.049e-10
-2.4247e-11
1.14807e-10
-2.62568e-11
1.25408e-10
-2.82079e-11
1.36637e-10
-3.00113e-11
1.48386e-10
-3.1554e-11
1.60491e-10
-3.26955e-11
1.72729e-10
-3.32678e-11
1.84803e-10
-3.30756e-11
1.9634e-10
-3.19003e-11
2.06881e-10
-2.95075e-11
2.15886e-10
-2.56582e-11
2.22742e-10
-2.01289e-11
2.26775e-10
-1.27351e-11
2.2729e-10
-3.36606e-12
2.23604e-10
7.97246e-12
2.15116e-10
2.11067e-11
2.01388e-10
3.56321e-11
1.82247e-10
5.08444e-11
1.57905e-10
6.56644e-11
1.291e-10
7.85663e-11
9.72393e-11
8.75209e-11
6.45531e-11
8.99754e-11
3.42491e-11
8.29179e-11
1.0716e-11
6.3063e-11
2.72679e-11
-1.03573e-11
3.5728e-11
-3.3111e-11
8.08585e-11
-6.23474e-11
1.05197e-10
-9.38242e-11
1.13497e-10
-1.24494e-10
1.10073e-10
-1.52262e-10
9.86926e-11
-1.75813e-10
8.24831e-11
-1.94445e-10
6.39265e-11
-2.07945e-10
4.48901e-11
-2.1646e-10
2.6703e-11
-2.20383e-10
1.02381e-11
-2.20269e-10
-3.9997e-12
-2.16752e-10
-1.5786e-11
-2.10484e-10
-2.5109e-11
-2.02101e-10
-3.21021e-11
-1.92185e-10
-3.69907e-11
-1.81256e-10
-4.00525e-11
-1.69753e-10
-4.15831e-11
-1.5804e-10
-4.18747e-11
-1.46409e-10
-4.12001e-11
-1.35079e-10
-3.98039e-11
-1.24214e-10
-3.78956e-11
-1.13925e-10
-3.56537e-11
-1.04281e-10
-3.32193e-11
-9.53192e-11
-3.07056e-11
-8.70481e-11
-2.81974e-11
-7.94582e-11
-2.57581e-11
-7.25245e-11
-2.34296e-11
-6.62136e-11
-2.12413e-11
-6.04868e-11
-1.92091e-11
-5.52987e-11
-1.73386e-11
-5.06082e-11
-1.56315e-11
-4.63698e-11
-1.40826e-11
-4.25419e-11
-1.26838e-11
-3.9085e-11
-1.14263e-11
-3.59621e-11
-1.02995e-11
-3.31388e-11
-9.29062e-12
-3.0585e-11
-8.39134e-12
-2.82708e-11
-7.58718e-12
-2.61729e-11
-6.87125e-12
-2.42671e-11
-6.23226e-12
-2.25319e-11
-5.66152e-12
-2.09514e-11
-5.1535e-12
-1.95093e-11
-4.69964e-12
-1.81902e-11
-4.29287e-12
-1.69819e-11
-3.92884e-12
-1.5873e-11
-3.6027e-12
-1.48536e-11
-3.30958e-12
-1.3915e-11
-3.04588e-12
-1.30492e-11
-2.80835e-12
-1.2249e-11
-2.59379e-12
-1.15083e-11
-2.39959e-12
-1.08214e-11
-2.22374e-12
-1.01836e-11
-2.06431e-12
-9.59038e-12
-1.9194e-12
-9.03777e-12
-1.78744e-12
-8.5222e-12
-1.66714e-12
-8.04047e-12
-1.55734e-12
-7.58976e-12
-1.45691e-12
-7.16748e-12
-1.3649e-12
-6.7712e-12
-1.28052e-12
-6.39874e-12
-1.20313e-12
-6.0482e-12
-1.13207e-12
-5.71802e-12
-1.06677e-12
-5.40659e-12
-1.00653e-12
-5.11236e-12
-9.50922e-13
-4.83381e-12
-8.9955e-13
-4.56979e-12
-8.52223e-13
-4.31937e-12
-8.08536e-13
-4.08154e-12
-7.68144e-13
-3.85525e-12
-7.3074e-13
-3.63961e-12
-6.96139e-13
-3.43383e-12
-6.6412e-13
-3.23734e-12
-6.34458e-13
-3.04938e-12
-6.06927e-13
-2.8692e-12
-5.81324e-13
-2.69622e-12
-5.57721e-13
-2.53004e-12
-5.36022e-13
-2.37028e-12
-5.16004e-13
-2.21632e-12
-4.97445e-13
-2.06752e-12
-4.80152e-13
-1.9235e-12
-4.64152e-13
-1.78406e-12
-4.49474e-13
-1.64884e-12
-4.36036e-13
-1.51739e-12
-4.23786e-13
-1.38936e-12
-4.12652e-13
-1.26451e-12
-4.02491e-13
-1.14258e-12
-3.93168e-13
-1.02314e-12
-3.84655e-13
-9.05815e-13
-3.77076e-13
-7.90454e-13
-3.7054e-13
-6.77009e-13
-3.64925e-13
-5.65249e-13
-3.60004e-13
-4.54753e-13
-3.55714e-13
-3.45175e-13
-3.52174e-13
-2.36404e-13
-3.49461e-13
-1.28367e-13
-3.47488e-13
-2.07691e-14
-3.46168e-13
8.67806e-14
-3.45568e-13
1.94449e-13
-3.45804e-13
3.0223e-13
-3.46824e-13
4.10299e-13
-3.48443e-13
5.1908e-13
-3.506e-13
6.28972e-13
-3.53459e-13
7.401e-13
-3.57211e-13
8.52465e-13
-3.61811e-13
9.66235e-13
-3.67089e-13
1.08181e-12
-3.73003e-13
1.19962e-12
-3.79701e-13
1.31989e-12
-3.87319e-13
1.44272e-12
-3.95845e-13
1.56833e-12
-4.05201e-13
1.6971e-12
-4.15426e-13
1.82943e-12
-4.26678e-13
1.96561e-12
-4.39047e-13
2.10589e-12
-4.52488e-13
2.25062e-12
-4.66964e-13
2.40031e-12
-4.82569e-13
2.55542e-12
-4.99511e-13
2.71629e-12
-5.17948e-13
2.88326e-12
-5.37927e-13
3.05681e-12
-5.5948e-13
3.23759e-12
-5.82671e-13
3.42628e-12
-6.07623e-13
3.62345e-12
-6.34529e-13
3.82961e-12
-6.63564e-13
4.04545e-12
-6.94917e-13
4.27174e-12
-7.28821e-13
4.50928e-12
-7.65442e-13
4.75898e-12
-8.04895e-13
5.02188e-12
-8.47383e-13
5.2991e-12
-8.93222e-13
5.59177e-12
-9.42799e-13
5.9011e-12
-9.96523e-13
6.22834e-12
-1.05472e-12
6.57496e-12
-1.11772e-12
6.94259e-12
-1.18601e-12
7.33294e-12
-1.2601e-12
7.74811e-12
-1.3405e-12
8.19045e-12
-1.42789e-12
8.66227e-12
-1.52301e-12
9.16621e-12
-1.62667e-12
9.70523e-12
-1.73998e-12
1.02823e-11
-1.86414e-12
1.09009e-11
-2.00017e-12
1.15649e-11
-2.14908e-12
1.22791e-11
-2.31222e-12
1.30489e-11
-2.49158e-12
1.38796e-11
-2.68942e-12
1.47773e-11
-2.9079e-12
1.57491e-11
-3.14939e-12
1.68029e-11
-3.41687e-12
1.79475e-11
-3.71379e-12
1.91927e-11
-4.04382e-12
2.05497e-11
-4.41096e-12
2.20316e-11
-4.8201e-12
2.36526e-11
-5.27705e-12
2.54288e-11
-5.78807e-12
2.73779e-11
-6.35997e-12
2.95202e-11
-7.00039e-12
3.18788e-11
-7.71799e-12
3.44795e-11
-8.52246e-12
3.73504e-11
-9.42442e-12
4.0523e-11
-1.0435e-11
4.4032e-11
-1.15656e-11
4.79157e-11
-1.28287e-11
5.2215e-11
-1.42366e-11
5.69741e-11
-1.58008e-11
6.22395e-11
-1.75317e-11
6.8059e-11
-1.94375e-11
7.44812e-11
-2.15219e-11
8.15529e-11
-2.37842e-11
8.93169e-11
-2.6215e-11
9.78096e-11
-2.8795e-11
1.07056e-10
-3.14917e-11
1.17064e-10
-3.42548e-11
1.2782e-10
-3.70127e-11
1.3928e-10
-3.96686e-11
1.51364e-10
-4.20954e-11
1.63943e-10
-4.41328e-11
1.76831e-10
-4.55837e-11
1.89776e-10
-4.62137e-11
2.02453e-10
-4.57528e-11
2.14454e-10
-4.39007e-11
2.25285e-10
-4.03388e-11
2.34373e-10
-3.47465e-11
2.41072e-10
-2.68281e-11
2.44686e-10
-1.63482e-11
2.44497e-10
-3.17732e-12
2.39821e-10
1.26491e-11
2.30065e-10
3.0863e-11
2.14816e-10
5.08817e-11
1.93937e-10
7.17218e-11
1.67695e-10
9.19052e-11
1.36888e-10
1.09373e-10
1.02992e-10
1.21417e-10
6.83215e-11
1.24648e-10
3.62143e-11
1.15024e-10
1.12986e-11
8.79779e-11
3.8567e-11
-1.00893e-11
4.58171e-11
-3.24824e-11
1.03251e-10
-6.14155e-11
1.3413e-10
-9.27043e-11
1.44786e-10
-1.23345e-10
1.40712e-10
-1.51268e-10
1.26614e-10
-1.75155e-10
1.0637e-10
-1.94287e-10
8.30597e-11
-2.08416e-10
5.9019e-11
-2.17643e-10
3.59294e-11
-2.22318e-10
1.49113e-11
-2.22947e-10
-3.36926e-12
-2.2013e-10
-1.86026e-11
-2.14494e-10
-3.07456e-11
-2.06653e-10
-3.99428e-11
-1.97181e-10
-4.64622e-11
-1.86593e-10
-5.06409e-11
-1.75331e-10
-5.28449e-11
-1.63766e-10
-5.34394e-11
-1.52198e-10
-5.27688e-11
-1.40856e-10
-5.11437e-11
-1.29919e-10
-4.88335e-11
-1.19507e-10
-4.6066e-11
-1.09699e-10
-4.30261e-11
-1.00543e-10
-3.9861e-11
-9.20579e-11
-3.66843e-11
-8.42381e-11
-3.35769e-11
-7.70684e-11
-3.06003e-11
-7.05185e-11
-2.7791e-11
-6.45532e-11
-2.51737e-11
-5.91326e-11
-2.27584e-11
-5.42159e-11
-2.05483e-11
-4.97601e-11
-1.85379e-11
-4.57252e-11
-1.67189e-11
-4.20723e-11
-1.50803e-11
-3.87631e-11
-1.36078e-11
-3.57663e-11
-1.22888e-11
-3.30471e-11
-1.11086e-11
-3.058e-11
-1.00544e-11
-2.8338e-11
-9.11276e-12
-2.62976e-11
-8.27197e-12
-2.4439e-11
-7.52111e-12
-2.27423e-11
-6.84999e-12
-2.11909e-11
-6.24977e-12
-1.97709e-11
-5.71277e-12
-1.84689e-11
-5.23144e-12
-1.72725e-11
-4.79904e-12
-1.61715e-11
-4.41028e-12
-1.51567e-11
-4.06048e-12
-1.42197e-11
-3.74509e-12
-1.3353e-11
-3.46008e-12
-1.25502e-11
-3.20218e-12
-1.18054e-11
-2.96848e-12
-1.11132e-11
-2.75632e-12
-1.0469e-11
-2.56338e-12
-9.86856e-12
-2.38768e-12
-9.30813e-12
-2.2274e-12
-8.78416e-12
-2.08098e-12
-8.29362e-12
-1.9471e-12
-7.83383e-12
-1.82455e-12
-7.40228e-12
-1.71213e-12
-6.99655e-12
-1.60885e-12
-6.61456e-12
-1.5139e-12
-6.25443e-12
-1.4266e-12
-5.91463e-12
-1.34626e-12
-5.59352e-12
-1.27209e-12
-5.2896e-12
-1.20358e-12
-5.00141e-12
-1.14029e-12
-4.72791e-12
-1.08191e-12
-4.46809e-12
-1.028e-12
-4.22083e-12
-9.78039e-13
-3.98516e-12
-9.31748e-13
-3.76018e-12
-8.88878e-13
-3.54525e-12
-8.49286e-13
-3.3396e-12
-8.12569e-13
-3.14262e-12
-7.78524e-13
-2.95351e-12
-7.46956e-13
-2.77169e-12
-7.1784e-13
-2.59671e-12
-6.91025e-13
-2.428e-12
-6.662e-13
-2.26507e-12
-6.43179e-13
-2.10745e-12
-6.21891e-13
-1.95478e-12
-6.02324e-13
-1.80669e-12
-5.84385e-13
-1.66268e-12
-5.67916e-13
-1.52232e-12
-5.52895e-13
-1.38537e-12
-5.3936e-13
-1.25164e-12
-5.27151e-13
-1.12082e-12
-5.15993e-13
-9.9242e-13
-5.05827e-13
-8.66055e-13
-4.96827e-13
-7.41559e-13
-4.89105e-13
-6.18843e-13
-4.82548e-13
-4.97648e-13
-4.76964e-13
-3.7757e-13
-4.7231e-13
-2.5832e-13
-4.68685e-13
-1.39791e-13
-4.66088e-13
-2.18021e-14
-4.64362e-13
9.60144e-14
-4.63437e-13
2.14005e-13
-4.63467e-13
3.32321e-13
-4.64629e-13
4.51032e-13
-4.66875e-13
5.70366e-13
-4.6999e-13
6.90731e-13
-4.73888e-13
8.12497e-13
-4.78719e-13
9.35809e-13
-4.84661e-13
1.06073e-12
-4.91703e-13
1.1875e-12
-4.99724e-13
1.31658e-12
-5.08715e-13
1.44838e-12
-5.18818e-13
1.58311e-12
-5.30184e-13
1.72089e-12
-5.42805e-13
1.86201e-12
-5.56595e-13
2.00698e-12
-5.71594e-13
2.15624e-12
-5.87987e-13
2.31008e-12
-6.05941e-13
2.46876e-12
-6.25496e-13
2.63271e-12
-6.46619e-13
2.8025e-12
-6.69379e-13
2.97862e-12
-6.93992e-13
3.16147e-12
-7.20674e-13
3.35155e-12
-7.49549e-13
3.54947e-12
-7.80671e-13
3.75595e-12
-8.14135e-13
3.97167e-12
-8.50176e-13
4.19716e-12
-8.89059e-13
4.43315e-12
-9.30988e-13
4.68054e-12
-9.76224e-13
4.94026e-12
-1.02509e-12
5.21328e-12
-1.07785e-12
5.50063e-12
-1.13476e-12
5.80344e-12
-1.19613e-12
6.12294e-12
-1.26237e-12
6.46053e-12
-1.33399e-12
6.81764e-12
-1.41154e-12
7.19584e-12
-1.49554e-12
7.59689e-12
-1.58665e-12
8.02266e-12
-1.68561e-12
8.47531e-12
-1.79303e-12
8.9573e-12
-1.90977e-12
9.47107e-12
-2.03682e-12
1.00194e-11
-2.17516e-12
1.06054e-11
-2.326e-12
1.12329e-11
-2.49093e-12
1.19055e-11
-2.67172e-12
1.26274e-11
-2.87011e-12
1.3403e-11
-3.08775e-12
1.42381e-11
-3.32679e-12
1.51386e-11
-3.59006e-12
1.61111e-11
-3.88054e-12
1.71629e-11
-4.20142e-12
1.83024e-11
-4.55646e-12
1.95391e-11
-4.95014e-12
2.08834e-11
-5.38755e-12
2.23468e-11
-5.87412e-12
2.39425e-11
-6.41592e-12
2.56858e-11
-7.02012e-12
2.75934e-11