/*--------------------------------*- C++ -*----------------------------------*\
| =========                 |                                                 |
| \\      /  F ield         | OpenFOAM: The Open Source CFD Toolbox           |
|  \\    /   O peration     | Version:  2412                                  |
|   \\  /    A nd           | Website:  www.openfoam.com                      |
|    \\/     M anipulation  |                                                 |
\*---------------------------------------------------------------------------*/
FoamFile
{
    version     2.0;
    format      ascii;
    arch        "LSB;label=32;scalar=64";
    class       volVectorField;
    location    "300";
    object      U;
}
// * * * * * * * * * * * * * * * * * * * * * * * * * * * * * * * * * * * * * //

dimensions      [0 1 -1 0 0 0 0];

internalField   nonuniform List<vector> 
40000
(
(-9.02993e-09 -4.16064e-09 0)
(-6.91951e-07 1.3779e-07 0)
(-2.00199e-06 2.26096e-07 0)
(-3.58471e-06 2.50789e-07 0)
(-5.18601e-06 2.34623e-07 0)
(-6.64341e-06 1.96563e-07 0)
(-7.86294e-06 1.4974e-07 0)
(-8.80294e-06 1.02098e-07 0)
(-9.45682e-06 5.80735e-08 0)
(-9.84076e-06 1.99198e-08 0)
(-9.98439e-06 -1.17395e-08 0)
(-9.92432e-06 -3.66872e-08 0)
(-9.69887e-06 -5.53788e-08 0)
(-9.34569e-06 -6.86552e-08 0)
(-8.89949e-06 -7.71613e-08 0)
(-8.39066e-06 -8.17298e-08 0)
(-7.84491e-06 -8.31514e-08 0)
(-7.28324e-06 -8.23544e-08 0)
(-6.72256e-06 -7.98863e-08 0)
(-6.17551e-06 -7.61173e-08 0)
(-5.65118e-06 -7.15868e-08 0)
(-5.15563e-06 -6.66477e-08 0)
(-4.69282e-06 -6.15064e-08 0)
(-4.26449e-06 -5.64546e-08 0)
(-3.87113e-06 -5.16424e-08 0)
(-3.51232e-06 -4.69888e-08 0)
(-3.18646e-06 -4.26463e-08 0)
(-2.8917e-06 -3.86181e-08 0)
(-2.62584e-06 -3.49938e-08 0)
(-2.38671e-06 -3.1776e-08 0)
(-2.17192e-06 -2.88536e-08 0)
(-1.97913e-06 -2.61799e-08 0)
(-1.80623e-06 -2.38534e-08 0)
(-1.65114e-06 -2.17119e-08 0)
(-1.51186e-06 -1.98153e-08 0)
(-1.38685e-06 -1.81537e-08 0)
(-1.27438e-06 -1.66428e-08 0)
(-1.17319e-06 -1.53829e-08 0)
(-1.0819e-06 -1.41001e-08 0)
(-9.99468e-07 -1.32438e-08 0)
(-9.25008e-07 -1.22327e-08 0)
(-8.57275e-07 -1.14034e-08 0)
(-7.95919e-07 -1.08044e-08 0)
(-7.40137e-07 -1.00466e-08 0)
(-6.89038e-07 -9.45423e-09 0)
(-6.42434e-07 -9.11144e-09 0)
(-5.99909e-07 -8.70002e-09 0)
(-5.60849e-07 -8.24624e-09 0)
(-5.24927e-07 -7.88854e-09 0)
(-4.9188e-07 -7.56623e-09 0)
(-4.61382e-07 -7.2318e-09 0)
(-4.33183e-07 -6.93132e-09 0)
(-4.07071e-07 -6.67428e-09 0)
(-3.82834e-07 -6.44309e-09 0)
(-3.60306e-07 -6.24887e-09 0)
(-3.39365e-07 -6.1029e-09 0)
(-3.19879e-07 -5.97827e-09 0)
(-3.01702e-07 -5.84862e-09 0)
(-2.84711e-07 -5.70348e-09 0)
(-2.68804e-07 -5.5457e-09 0)
(-2.53875e-07 -5.39217e-09 0)
(-2.39834e-07 -5.26614e-09 0)
(-2.26622e-07 -5.17658e-09 0)
(-2.142e-07 -5.11424e-09 0)
(-2.02518e-07 -5.05246e-09 0)
(-1.91507e-07 -4.97928e-09 0)
(-1.81096e-07 -4.89945e-09 0)
(-1.71224e-07 -4.8244e-09 0)
(-1.61846e-07 -4.75687e-09 0)
(-1.52938e-07 -4.69888e-09 0)
(-1.44473e-07 -4.64607e-09 0)
(-1.36423e-07 -4.60556e-09 0)
(-1.28758e-07 -4.56587e-09 0)
(-1.21447e-07 -4.52842e-09 0)
(-1.14457e-07 -4.48222e-09 0)
(-1.07754e-07 -4.44136e-09 0)
(-1.01318e-07 -4.41367e-09 0)
(-9.5136e-08 -4.39192e-09 0)
(-8.91958e-08 -4.36379e-09 0)
(-8.34851e-08 -4.32337e-09 0)
(-7.79849e-08 -4.28447e-09 0)
(-7.26638e-08 -4.26799e-09 0)
(-6.75049e-08 -4.26732e-09 0)
(-6.25054e-08 -4.2622e-09 0)
(-5.76629e-08 -4.23545e-09 0)
(-5.29585e-08 -4.18807e-09 0)
(-4.83576e-08 -4.15057e-09 0)
(-4.38457e-08 -4.14438e-09 0)
(-3.9436e-08 -4.15553e-09 0)
(-3.51357e-08 -4.16542e-09 0)
(-3.09255e-08 -4.1703e-09 0)
(-2.678e-08 -4.1677e-09 0)
(-2.26911e-08 -4.14757e-09 0)
(-1.8655e-08 -4.10521e-09 0)
(-1.46509e-08 -4.05869e-09 0)
(-1.06575e-08 -4.04165e-09 0)
(-6.68029e-09 -4.06882e-09 0)
(-2.74146e-09 -4.1167e-09 0)
(1.15333e-09 -4.14837e-09 0)
(5.03051e-09 -4.15098e-09 0)
(8.925e-09 -4.13556e-09 0)
(1.28512e-08 -4.11345e-09 0)
(1.68064e-08 -4.09137e-09 0)
(2.07919e-08 -4.07935e-09 0)
(2.48155e-08 -4.08676e-09 0)
(2.88838e-08 -4.11203e-09 0)
(3.29973e-08 -4.14237e-09 0)
(3.71597e-08 -4.16533e-09 0)
(4.13863e-08 -4.18034e-09 0)
(4.5697e-08 -4.19413e-09 0)
(5.01034e-08 -4.20829e-09 0)
(5.46132e-08 -4.21632e-09 0)
(5.92374e-08 -4.21698e-09 0)
(6.39861e-08 -4.2181e-09 0)
(6.88649e-08 -4.23067e-09 0)
(7.3879e-08 -4.25462e-09 0)
(7.90421e-08 -4.27904e-09 0)
(8.4381e-08 -4.29853e-09 0)
(8.99218e-08 -4.31975e-09 0)
(9.56735e-08 -4.35009e-09 0)
(1.01637e-07 -4.38694e-09 0)
(1.07822e-07 -4.42116e-09 0)
(1.14252e-07 -4.45058e-09 0)
(1.20956e-07 -4.48298e-09 0)
(1.27958e-07 -4.5214e-09 0)
(1.35282e-07 -4.55859e-09 0)
(1.42956e-07 -4.58931e-09 0)
(1.51003e-07 -4.62017e-09 0)
(1.59444e-07 -4.66465e-09 0)
(1.68301e-07 -4.72564e-09 0)
(1.77607e-07 -4.79088e-09 0)
(1.87413e-07 -4.85263e-09 0)
(1.97775e-07 -4.91774e-09 0)
(2.08734e-07 -4.9955e-09 0)
(2.20322e-07 -5.08944e-09 0)
(2.32578e-07 -5.195e-09 0)
(2.45554e-07 -5.29679e-09 0)
(2.59324e-07 -5.37999e-09 0)
(2.73976e-07 -5.4501e-09 0)
(2.89593e-07 -5.53938e-09 0)
(3.06256e-07 -5.6901e-09 0)
(3.24043e-07 -5.90714e-09 0)
(3.43027e-07 -6.13646e-09 0)
(3.63317e-07 -6.32601e-09 0)
(3.85062e-07 -6.47311e-09 0)
(4.08409e-07 -6.59608e-09 0)
(4.33521e-07 -6.718e-09 0)
(4.60599e-07 -6.88515e-09 0)
(4.89859e-07 -7.16344e-09 0)
(5.21505e-07 -7.5856e-09 0)
(5.55712e-07 -8.09321e-09 0)
(5.92709e-07 -8.5769e-09 0)
(6.32857e-07 -8.98127e-09 0)
(6.76587e-07 -9.33992e-09 0)
(7.2433e-07 -9.72933e-09 0)
(7.76518e-07 -1.02022e-08 0)
(8.33649e-07 -1.0772e-08 0)
(8.96332e-07 -1.14556e-08 0)
(9.65237e-07 -1.22743e-08 0)
(1.04109e-06 -1.32201e-08 0)
(1.12473e-06 -1.42728e-08 0)
(1.21717e-06 -1.54445e-08 0)
(1.31954e-06 -1.67746e-08 0)
(1.43308e-06 -1.82888e-08 0)
(1.55917e-06 -1.99885e-08 0)
(1.69936e-06 -2.18635e-08 0)
(1.85541e-06 -2.39281e-08 0)
(2.02926e-06 -2.62364e-08 0)
(2.22301e-06 -2.88328e-08 0)
(2.43888e-06 -3.17497e-08 0)
(2.67931e-06 -3.50169e-08 0)
(2.94678e-06 -3.86382e-08 0)
(3.24384e-06 -4.26347e-08 0)
(3.57303e-06 -4.70313e-08 0)
(3.93664e-06 -5.1799e-08 0)
(4.33663e-06 -5.69088e-08 0)
(4.77443e-06 -6.23009e-08 0)
(5.2505e-06 -6.78393e-08 0)
(5.76418e-06 -7.33845e-08 0)
(6.31314e-06 -7.87198e-08 0)
(6.89286e-06 -8.35401e-08 0)
(7.49623e-06 -8.7485e-08 0)
(8.11278e-06 -9.00512e-08 0)
(8.72822e-06 -9.06587e-08 0)
(9.32381e-06 -8.86019e-08 0)
(9.87596e-06 -8.30768e-08 0)
(1.0356e-05 -7.32457e-08 0)
(1.07304e-05 -5.81897e-08 0)
(1.09611e-05 -3.70971e-08 0)
(1.10072e-05 -9.24252e-09 0)
(1.0827e-05 2.58199e-08 0)
(1.03816e-05 6.79594e-08 0)
(9.64e-06 1.16168e-07 0)
(8.58651e-06 1.67891e-07 0)
(7.23076e-06 2.18218e-07 0)
(5.62126e-06 2.58432e-07 0)
(3.86359e-06 2.74133e-07 0)
(2.13828e-06 2.4485e-07 0)
(7.20817e-07 1.46071e-07 0)
(-8.89634e-10 -1.0019e-08 0)
(-1.79607e-07 6.93466e-07 0)
(-2.12535e-06 1.9791e-06 0)
(-5.28836e-06 2.76143e-06 0)
(-8.99929e-06 3.02527e-06 0)
(-1.2754e-05 2.90942e-06 0)
(-1.62125e-05 2.55217e-06 0)
(-1.91588e-05 2.06527e-06 0)
(-2.14826e-05 1.52944e-06 0)
(-2.31512e-05 9.99968e-07 0)
(-2.41866e-05 5.11698e-07 0)
(-2.46455e-05 8.48482e-08 0)
(-2.4605e-05 -2.71532e-07 0)
(-2.41507e-05 -5.556e-07 0)
(-2.33693e-05 -7.70884e-07 0)
(-2.23427e-05 -9.23888e-07 0)
(-2.11448e-05 -1.02258e-06 0)
(-1.98397e-05 -1.07575e-06 0)
(-1.84803e-05 -1.09231e-06 0)
(-1.71095e-05 -1.08036e-06 0)
(-1.57608e-05 -1.04698e-06 0)
(-1.4459e-05 -9.98462e-07 0)
(-1.32212e-05 -9.39931e-07 0)
(-1.2059e-05 -8.75722e-07 0)
(-1.09784e-05 -8.08969e-07 0)
(-9.98164e-06 -7.42267e-07 0)
(-9.06881e-06 -6.77302e-07 0)
(-8.23722e-06 -6.15371e-07 0)
(-7.48286e-06 -5.57146e-07 0)
(-6.8009e-06 -5.03303e-07 0)
(-6.18598e-06 -4.53934e-07 0)
(-5.63242e-06 -4.0898e-07 0)
(-5.13483e-06 -3.68335e-07 0)
(-4.68787e-06 -3.31784e-07 0)
(-4.28635e-06 -2.98999e-07 0)
(-3.92562e-06 -2.69633e-07 0)
(-3.60139e-06 -2.4369e-07 0)
(-3.30964e-06 -2.20359e-07 0)
(-3.04677e-06 -1.99849e-07 0)
(-2.80979e-06 -1.81462e-07 0)
(-2.59563e-06 -1.653e-07 0)
(-2.40174e-06 -1.50767e-07 0)
(-2.22605e-06 -1.37895e-07 0)
(-2.06637e-06 -1.26559e-07 0)
(-1.92107e-06 -1.16253e-07 0)
(-1.78867e-06 -1.07111e-07 0)
(-1.66759e-06 -9.90871e-08 0)
(-1.55669e-06 -9.1844e-08 0)
(-1.45508e-06 -8.53309e-08 0)
(-1.36177e-06 -7.95198e-08 0)
(-1.2758e-06 -7.42597e-08 0)
(-1.19648e-06 -6.94842e-08 0)
(-1.12323e-06 -6.51793e-08 0)
(-1.05542e-06 -6.12693e-08 0)
(-9.925e-07 -5.77023e-08 0)
(-9.34071e-07 -5.44784e-08 0)
(-8.7974e-07 -5.1586e-08 0)
(-8.29113e-07 -4.89693e-08 0)
(-7.8185e-07 -4.65841e-08 0)
(-7.37674e-07 -4.43944e-08 0)
(-6.96343e-07 -4.23642e-08 0)
(-6.57616e-07 -4.04704e-08 0)
(-6.21258e-07 -3.87251e-08 0)
(-5.87069e-07 -3.71477e-08 0)
(-5.54884e-07 -3.57331e-08 0)
(-5.24551e-07 -3.44386e-08 0)
(-4.95937e-07 -3.32339e-08 0)
(-4.68905e-07 -3.21014e-08 0)
(-4.43313e-07 -3.10463e-08 0)
(-4.19031e-07 -3.00684e-08 0)
(-3.9596e-07 -2.91715e-08 0)
(-3.74032e-07 -2.83427e-08 0)
(-3.53176e-07 -2.75886e-08 0)
(-3.33312e-07 -2.68943e-08 0)
(-3.14359e-07 -2.62512e-08 0)
(-2.96235e-07 -2.56336e-08 0)
(-2.78882e-07 -2.50563e-08 0)
(-2.6223e-07 -2.45255e-08 0)
(-2.46222e-07 -2.40541e-08 0)
(-2.30824e-07 -2.36203e-08 0)
(-2.16022e-07 -2.32105e-08 0)
(-2.01796e-07 -2.2817e-08 0)
(-1.88055e-07 -2.24487e-08 0)
(-1.74712e-07 -2.2128e-08 0)
(-1.61737e-07 -2.18512e-08 0)
(-1.49142e-07 -2.15887e-08 0)
(-1.36937e-07 -2.13211e-08 0)
(-1.25075e-07 -2.1061e-08 0)
(-1.13464e-07 -2.08353e-08 0)
(-1.02076e-07 -2.06537e-08 0)
(-9.09311e-08 -2.05027e-08 0)
(-8.00072e-08 -2.03701e-08 0)
(-6.92396e-08 -2.02605e-08 0)
(-5.86001e-08 -2.017e-08 0)
(-4.81093e-08 -2.00708e-08 0)
(-3.77728e-08 -1.995e-08 0)
(-2.75443e-08 -1.98411e-08 0)
(-1.7358e-08 -1.979e-08 0)
(-7.18309e-09 -1.98006e-08 0)
(2.96678e-09 -1.9835e-08 0)
(1.30873e-08 -1.98635e-08 0)
(2.32147e-08 -1.98882e-08 0)
(3.33851e-08 -1.99207e-08 0)
(4.36042e-08 -1.99625e-08 0)
(5.38775e-08 -2.00136e-08 0)
(6.42383e-08 -2.00834e-08 0)
(7.4731e-08 -2.01843e-08 0)
(8.53786e-08 -2.03174e-08 0)
(9.61813e-08 -2.04686e-08 0)
(1.0715e-07 -2.06286e-08 0)
(1.18325e-07 -2.08018e-08 0)
(1.29749e-07 -2.0995e-08 0)
(1.41447e-07 -2.12029e-08 0)
(1.53429e-07 -2.14215e-08 0)
(1.65707e-07 -2.16565e-08 0)
(1.78311e-07 -2.19229e-08 0)
(1.91288e-07 -2.22239e-08 0)
(2.04682e-07 -2.25445e-08 0)
(2.18532e-07 -2.28746e-08 0)
(2.32875e-07 -2.32263e-08 0)
(2.47747e-07 -2.36199e-08 0)
(2.63186e-07 -2.40612e-08 0)
(2.79226e-07 -2.45384e-08 0)
(2.95906e-07 -2.5044e-08 0)
(3.13289e-07 -2.55881e-08 0)
(3.31446e-07 -2.61804e-08 0)
(3.50447e-07 -2.68175e-08 0)
(3.70345e-07 -2.74959e-08 0)
(3.91186e-07 -2.82241e-08 0)
(4.13037e-07 -2.90211e-08 0)
(4.35995e-07 -2.98979e-08 0)
(4.60156e-07 -3.08435e-08 0)
(4.85611e-07 -3.1849e-08 0)
(5.1247e-07 -3.29278e-08 0)
(5.40854e-07 -3.41006e-08 0)
(5.7089e-07 -3.53862e-08 0)
(6.02714e-07 -3.67986e-08 0)
(6.36461e-07 -3.83347e-08 0)
(6.7227e-07 -3.99785e-08 0)
(7.10299e-07 -4.17248e-08 0)
(7.50741e-07 -4.35944e-08 0)
(7.93869e-07 -4.56483e-08 0)
(8.40003e-07 -4.79535e-08 0)
(8.89396e-07 -5.05161e-08 0)
(9.42261e-07 -5.3314e-08 0)
(9.98897e-07 -5.63581e-08 0)
(1.05967e-06 -5.96606e-08 0)
(1.12495e-06 -6.32185e-08 0)
(1.19519e-06 -6.70609e-08 0)
(1.27097e-06 -7.12965e-08 0)
(1.353e-06 -7.60921e-08 0)
(1.44196e-06 -8.15434e-08 0)
(1.53846e-06 -8.76237e-08 0)
(1.64322e-06 -9.42985e-08 0)
(1.75717e-06 -1.01627e-07 0)
(1.88141e-06 -1.09756e-07 0)
(2.01715e-06 -1.18834e-07 0)
(2.16573e-06 -1.28975e-07 0)
(2.32869e-06 -1.40344e-07 0)
(2.50783e-06 -1.53155e-07 0)
(2.70511e-06 -1.67589e-07 0)
(2.92271e-06 -1.83809e-07 0)
(3.1631e-06 -2.02033e-07 0)
(3.42916e-06 -2.22544e-07 0)
(3.72411e-06 -2.45658e-07 0)
(4.05157e-06 -2.71695e-07 0)
(4.41544e-06 -3.00942e-07 0)
(4.82008e-06 -3.33684e-07 0)
(5.27032e-06 -3.70294e-07 0)
(5.7714e-06 -4.1112e-07 0)
(6.32889e-06 -4.56443e-07 0)
(6.94873e-06 -5.06517e-07 0)
(7.63696e-06 -5.61443e-07 0)
(8.3996e-06 -6.21173e-07 0)
(9.24253e-06 -6.85508e-07 0)
(1.01709e-05 -7.53886e-07 0)
(1.11888e-05 -8.25368e-07 0)
(1.22988e-05 -8.98562e-07 0)
(1.35008e-05 -9.71367e-07 0)
(1.47916e-05 -1.04098e-06 0)
(1.61636e-05 -1.10373e-06 0)
(1.76037e-05 -1.15489e-06 0)
(1.90919e-05 -1.18871e-06 0)
(2.06003e-05 -1.19827e-06 0)
(2.20911e-05 -1.17561e-06 0)
(2.35164e-05 -1.11183e-06 0)
(2.48165e-05 -9.97473e-07 0)
(2.59208e-05 -8.23123e-07 0)
(2.67476e-05 -5.80078e-07 0)
(2.72073e-05 -2.6178e-07 0)
(2.72057e-05 1.34837e-07 0)
(2.66501e-05 6.07186e-07 0)
(2.54586e-05 1.14424e-06 0)
(2.35723e-05 1.72315e-06 0)
(2.0972e-05 2.30463e-06 0)
(1.76989e-05 2.82772e-06 0)
(1.38796e-05 3.20357e-06 0)
(9.75571e-06 3.31089e-06 0)
(5.70351e-06 3.00151e-06 0)
(2.2713e-06 2.12929e-06 0)
(1.84518e-07 7.25425e-07 0)
(-2.96851e-07 2.14522e-06 0)
(-3.15433e-06 5.23023e-06 0)
(-7.56865e-06 6.99582e-06 0)
(-1.26727e-05 7.59737e-06 0)
(-1.78289e-05 7.33374e-06 0)
(-2.26059e-05 6.4962e-06 0)
(-2.67183e-05 5.32981e-06 0)
(-3.00099e-05 4.02172e-06 0)
(-3.24236e-05 2.70693e-06 0)
(-3.39759e-05 1.47546e-06 0)
(-3.47328e-05 3.82888e-07 0)
(-3.4791e-05 -5.42469e-07 0)
(-3.42618e-05 -1.29148e-06 0)
(-3.32611e-05 -1.86881e-06 0)
(-3.19001e-05 -2.28794e-06 0)
(-3.02809e-05 -2.56747e-06 0)
(-2.84933e-05 -2.72834e-06 0)
(-2.66131e-05 -2.79188e-06 0)
(-2.47023e-05 -2.77861e-06 0)
(-2.28098e-05 -2.70702e-06 0)
(-2.09725e-05 -2.5932e-06 0)
(-1.9217e-05 -2.45061e-06 0)
(-1.75612e-05 -2.2907e-06 0)
(-1.60155e-05 -2.122e-06 0)
(-1.45849e-05 -1.95155e-06 0)
(-1.32706e-05 -1.78427e-06 0)
(-1.20695e-05 -1.62367e-06 0)
(-1.09772e-05 -1.4721e-06 0)
(-9.98743e-06 -1.33099e-06 0)
(-9.09294e-06 -1.20099e-06 0)
(-8.28629e-06 -1.08221e-06 0)
(-7.55987e-06 -9.74664e-07 0)
(-6.90626e-06 -8.77513e-07 0)
(-6.31825e-06 -7.90318e-07 0)
(-5.78947e-06 -7.12289e-07 0)
(-5.31352e-06 -6.42636e-07 0)
(-4.88475e-06 -5.80541e-07 0)
(-4.49833e-06 -5.25326e-07 0)
(-4.14937e-06 -4.76379e-07 0)
(-3.83389e-06 -4.32603e-07 0)
(-3.54824e-06 -3.93889e-07 0)
(-3.28912e-06 -3.59404e-07 0)
(-3.05358e-06 -3.28522e-07 0)
(-2.83915e-06 -3.01118e-07 0)
(-2.64359e-06 -2.76702e-07 0)
(-2.46484e-06 -2.54756e-07 0)
(-2.30121e-06 -2.35122e-07 0)
(-2.15115e-06 -2.17602e-07 0)
(-2.0132e-06 -2.0184e-07 0)
(-1.88613e-06 -1.87611e-07 0)
(-1.76893e-06 -1.7481e-07 0)
(-1.66062e-06 -1.63259e-07 0)
(-1.56031e-06 -1.52774e-07 0)
(-1.46728e-06 -1.43255e-07 0)
(-1.38092e-06 -1.34616e-07 0)
(-1.30061e-06 -1.26754e-07 0)
(-1.22579e-06 -1.19576e-07 0)
(-1.15596e-06 -1.13035e-07 0)
(-1.09067e-06 -1.07083e-07 0)
(-1.02953e-06 -1.01649e-07 0)
(-9.72214e-07 -9.66556e-08 0)
(-9.1843e-07 -9.20517e-08 0)
(-8.679e-07 -8.78163e-08 0)
(-8.20347e-07 -8.39282e-08 0)
(-7.75521e-07 -8.0359e-08 0)
(-7.33205e-07 -7.7079e-08 0)
(-6.93206e-07 -7.40507e-08 0)
(-6.55338e-07 -7.12369e-08 0)
(-6.1943e-07 -6.86294e-08 0)
(-5.85335e-07 -6.62148e-08 0)
(-5.52933e-07 -6.39952e-08 0)
(-5.22112e-07 -6.1948e-08 0)
(-4.92742e-07 -6.00604e-08 0)
(-4.64696e-07 -5.83089e-08 0)
(-4.37878e-07 -5.66714e-08 0)
(-4.12208e-07 -5.51487e-08 0)
(-3.87606e-07 -5.37203e-08 0)
(-3.63979e-07 -5.24097e-08 0)
(-3.41244e-07 -5.12207e-08 0)
(-3.19357e-07 -5.01475e-08 0)
(-2.98267e-07 -4.91505e-08 0)
(-2.77913e-07 -4.81818e-08 0)
(-2.58216e-07 -4.72647e-08 0)
(-2.39089e-07 -4.6444e-08 0)
(-2.20488e-07 -4.57293e-08 0)
(-2.02403e-07 -4.50931e-08 0)
(-1.84799e-07 -4.44895e-08 0)
(-1.6762e-07 -4.39108e-08 0)
(-1.50818e-07 -4.33926e-08 0)
(-1.34363e-07 -4.29419e-08 0)
(-1.18221e-07 -4.25326e-08 0)
(-1.02337e-07 -4.21702e-08 0)
(-8.66432e-08 -4.18876e-08 0)
(-7.1109e-08 -4.16831e-08 0)
(-5.57482e-08 -4.15121e-08 0)
(-4.05672e-08 -4.13418e-08 0)
(-2.55215e-08 -4.11879e-08 0)
(-1.05417e-08 -4.10916e-08 0)
(4.41446e-09 -4.10671e-08 0)
(1.93643e-08 -4.10939e-08 0)
(3.43382e-08 -4.11584e-08 0)
(4.93764e-08 -4.12709e-08 0)
(6.45034e-08 -4.14372e-08 0)
(7.97317e-08 -4.16412e-08 0)
(9.50827e-08 -4.18664e-08 0)
(1.10595e-07 -4.212e-08 0)
(1.26316e-07 -4.24243e-08 0)
(1.42277e-07 -4.27868e-08 0)
(1.58503e-07 -4.31962e-08 0)
(1.75034e-07 -4.36467e-08 0)
(1.91923e-07 -4.41448e-08 0)
(2.09214e-07 -4.46987e-08 0)
(2.26933e-07 -4.53122e-08 0)
(2.451e-07 -4.59834e-08 0)
(2.63751e-07 -4.67122e-08 0)
(2.8296e-07 -4.75033e-08 0)
(3.02794e-07 -4.83577e-08 0)
(3.23299e-07 -4.92737e-08 0)
(3.44515e-07 -5.02576e-08 0)
(3.66495e-07 -5.13231e-08 0)
(3.89308e-07 -5.24849e-08 0)
(4.13025e-07 -5.37505e-08 0)
(4.37703e-07 -5.51187e-08 0)
(4.6342e-07 -5.6592e-08 0)
(4.90277e-07 -5.81784e-08 0)
(5.18376e-07 -5.98892e-08 0)
(5.47803e-07 -6.1741e-08 0)
(5.78629e-07 -6.37444e-08 0)
(6.1095e-07 -6.59073e-08 0)
(6.44909e-07 -6.82477e-08 0)
(6.80658e-07 -7.07826e-08 0)
(7.18337e-07 -7.35179e-08 0)
(7.58091e-07 -7.6462e-08 0)
(8.00081e-07 -7.96313e-08 0)
(8.44479e-07 -8.30532e-08 0)
(8.91496e-07 -8.67739e-08 0)
(9.41371e-07 -9.08407e-08 0)
(9.94352e-07 -9.52856e-08 0)
(1.05069e-06 -1.00124e-07 0)
(1.11065e-06 -1.05342e-07 0)
(1.17451e-06 -1.10946e-07 0)
(1.24268e-06 -1.17026e-07 0)
(1.31559e-06 -1.23706e-07 0)
(1.39366e-06 -1.31063e-07 0)
(1.47736e-06 -1.39173e-07 0)
(1.56728e-06 -1.48125e-07 0)
(1.66402e-06 -1.57986e-07 0)
(1.7682e-06 -1.68768e-07 0)
(1.88048e-06 -1.80494e-07 0)
(2.00173e-06 -1.93344e-07 0)
(2.13302e-06 -2.07625e-07 0)
(2.27545e-06 -2.23584e-07 0)
(2.43023e-06 -2.41381e-07 0)
(2.59868e-06 -2.61189e-07 0)
(2.78233e-06 -2.83265e-07 0)
(2.98297e-06 -3.07919e-07 0)
(3.20255e-06 -3.35459e-07 0)
(3.44325e-06 -3.66247e-07 0)
(3.70766e-06 -4.00752e-07 0)
(3.99867e-06 -4.39509e-07 0)
(4.31952e-06 -4.83085e-07 0)
(4.6738e-06 -5.32071e-07 0)
(5.06561e-06 -5.87107e-07 0)
(5.49956e-06 -6.48936e-07 0)
(5.98083e-06 -7.1842e-07 0)
(6.51515e-06 -7.96416e-07 0)
(7.10871e-06 -8.83724e-07 0)
(7.76834e-06 -9.81199e-07 0)
(8.50142e-06 -1.08965e-06 0)
(9.31575e-06 -1.20971e-06 0)
(1.02196e-05 -1.34193e-06 0)
(1.12212e-05 -1.48649e-06 0)
(1.23287e-05 -1.64308e-06 0)
(1.355e-05 -1.8109e-06 0)
(1.48915e-05 -1.98828e-06 0)
(1.63581e-05 -2.17241e-06 0)
(1.79522e-05 -2.35931e-06 0)
(1.96725e-05 -2.54325e-06 0)
(2.15125e-05 -2.7165e-06 0)
(2.34599e-05 -2.86919e-06 0)
(2.54937e-05 -2.98875e-06 0)
(2.75838e-05 -3.06004e-06 0)
(2.96882e-05 -3.06516e-06 0)
(3.17518e-05 -2.98378e-06 0)
(3.37053e-05 -2.79367e-06 0)
(3.5464e-05 -2.47164e-06 0)
(3.69286e-05 -1.99522e-06 0)
(3.79865e-05 -1.34475e-06 0)
(3.85156e-05 -5.06674e-07 0)
(3.83903e-05 5.22469e-07 0)
(3.749e-05 1.73096e-06 0)
(3.57125e-05 3.08536e-06 0)
(3.299e-05 4.52298e-06 0)
(2.93104e-05 5.94278e-06 0)
(2.47425e-05 7.19607e-06 0)
(1.94644e-05 8.07758e-06 0)
(1.37951e-05 8.32193e-06 0)
(8.21033e-06 7.61728e-06 0)
(3.40363e-06 5.65074e-06 0)
(3.1494e-07 2.28115e-06 0)
(-3.51547e-07 4.02049e-06 0)
(-3.7179e-06 9.33513e-06 0)
(-8.86209e-06 1.22685e-05 0)
(-1.47823e-05 1.32637e-05 0)
(-2.07644e-05 1.28265e-05 0)
(-2.63311e-05 1.14247e-05 0)
(-3.11613e-05 9.4524e-06 0)
(-3.50725e-05 7.21835e-06 0)
(-3.79907e-05 4.9504e-06 0)
(-3.99242e-05 2.80613e-06 0)
(-4.09383e-05 8.85362e-07 0)
(-4.11354e-05 -7.56746e-07 0)
(-4.06375e-05 -2.09951e-06 0)
(-3.95739e-05 -3.14663e-06 0)
(-3.80711e-05 -3.91778e-06 0)
(-3.6247e-05 -4.44319e-06 0)
(-3.42062e-05 -4.75757e-06 0)
(-3.20384e-05 -4.89732e-06 0)
(-2.9818e-05 -4.89764e-06 0)
(-2.76043e-05 -4.79072e-06 0)
(-2.54429e-05 -4.60535e-06 0)
(-2.33671e-05 -4.36559e-06 0)
(-2.14004e-05 -4.0916e-06 0)
(-1.9557e-05 -3.79935e-06 0)
(-1.78445e-05 -3.50148e-06 0)
(-1.62655e-05 -3.20715e-06 0)
(-1.48182e-05 -2.92307e-06 0)
(-1.3498e-05 -2.6539e-06 0)
(-1.22984e-05 -2.40226e-06 0)
(-1.12116e-05 -2.16963e-06 0)
(-1.02293e-05 -1.9567e-06 0)
(-9.34276e-06 -1.76294e-06 0)
(-8.54339e-06 -1.58789e-06 0)
(-7.82317e-06 -1.43036e-06 0)
(-7.17413e-06 -1.28921e-06 0)
(-6.58913e-06 -1.16285e-06 0)
(-6.06152e-06 -1.05027e-06 0)
(-5.58532e-06 -9.4983e-07 0)
(-5.15476e-06 -8.60501e-07 0)
(-4.76508e-06 -7.80906e-07 0)
(-4.41203e-06 -7.10174e-07 0)
(-4.09117e-06 -6.47231e-07 0)
(-3.79945e-06 -5.90998e-07 0)
(-3.53392e-06 -5.40867e-07 0)
(-3.29137e-06 -4.96157e-07 0)
(-3.06944e-06 -4.56156e-07 0)
(-2.86628e-06 -4.20331e-07 0)
(-2.6799e-06 -3.88158e-07 0)
(-2.50846e-06 -3.59195e-07 0)
(-2.35052e-06 -3.33124e-07 0)
(-2.20481e-06 -3.09628e-07 0)
(-2.07008e-06 -2.88379e-07 0)
(-1.94529e-06 -2.69143e-07 0)
(-1.82954e-06 -2.51731e-07 0)
(-1.72201e-06 -2.35939e-07 0)
(-1.62197e-06 -2.21555e-07 0)
(-1.52875e-06 -2.08419e-07 0)
(-1.44177e-06 -1.96407e-07 0)
(-1.36046e-06 -1.85422e-07 0)
(-1.28432e-06 -1.75379e-07 0)
(-1.21291e-06 -1.66198e-07 0)
(-1.14588e-06 -1.57787e-07 0)
(-1.08287e-06 -1.50059e-07 0)
(-1.02358e-06 -1.42932e-07 0)
(-9.67695e-07 -1.36363e-07 0)
(-9.1494e-07 -1.30308e-07 0)
(-8.65056e-07 -1.24727e-07 0)
(-8.17821e-07 -1.1957e-07 0)
(-7.73032e-07 -1.14803e-07 0)
(-7.30512e-07 -1.10398e-07 0)
(-6.90105e-07 -1.06336e-07 0)
(-6.51654e-07 -1.02573e-07 0)
(-6.1501e-07 -9.90852e-08 0)
(-5.80017e-07 -9.58423e-08 0)
(-5.46554e-07 -9.2852e-08 0)
(-5.14509e-07 -9.00857e-08 0)
(-4.83786e-07 -8.75138e-08 0)
(-4.54311e-07 -8.51178e-08 0)
(-4.25979e-07 -8.29086e-08 0)
(-3.98693e-07 -8.08942e-08 0)
(-3.7235e-07 -7.90524e-08 0)
(-3.46884e-07 -7.73351e-08 0)
(-3.22261e-07 -7.5711e-08 0)
(-2.9841e-07 -7.4201e-08 0)
(-2.75242e-07 -7.2841e-08 0)
(-2.52688e-07 -7.16285e-08 0)
(-2.30692e-07 -7.05314e-08 0)
(-2.0922e-07 -6.95302e-08 0)
(-1.88233e-07 -6.86287e-08 0)
(-1.67668e-07 -6.78259e-08 0)
(-1.47478e-07 -6.70997e-08 0)
(-1.27635e-07 -6.64336e-08 0)
(-1.08084e-07 -6.58472e-08 0)
(-8.8753e-08 -6.53791e-08 0)
(-6.95953e-08 -6.50377e-08 0)
(-5.06039e-08 -6.4787e-08 0)
(-3.17693e-08 -6.45918e-08 0)
(-1.3045e-08 -6.44557e-08 0)
(5.63291e-09 -6.43971e-08 0)
(2.43079e-08 -6.44131e-08 0)
(4.30057e-08 -6.4495e-08 0)
(6.17602e-08 -6.46543e-08 0)
(8.06193e-08 -6.49099e-08 0)
(9.96292e-08 -6.52628e-08 0)
(1.1882e-07 -6.56949e-08 0)
(1.38216e-07 -6.61926e-08 0)
(1.57857e-07 -6.67625e-08 0)
(1.77793e-07 -6.74202e-08 0)
(1.9807e-07 -6.8167e-08 0)
(2.18732e-07 -6.89961e-08 0)
(2.39833e-07 -6.99066e-08 0)
(2.61421e-07 -7.0911e-08 0)
(2.83538e-07 -7.20249e-08 0)
(3.06223e-07 -7.32534e-08 0)
(3.29525e-07 -7.45879e-08 0)
(3.53522e-07 -7.60292e-08 0)
(3.78292e-07 -7.7593e-08 0)
(4.039e-07 -7.92947e-08 0)
(4.304e-07 -8.11417e-08 0)
(4.57853e-07 -8.3134e-08 0)
(4.86336e-07 -8.52813e-08 0)
(5.1594e-07 -8.76072e-08 0)
(5.46753e-07 -9.01274e-08 0)
(5.78872e-07 -9.28446e-08 0)
(6.12412e-07 -9.57629e-08 0)
(6.47483e-07 -9.8902e-08 0)
(6.84195e-07 -1.02299e-07 0)
(7.22659e-07 -1.05981e-07 0)
(7.63001e-07 -1.09956e-07 0)
(8.0538e-07 -1.14241e-07 0)
(8.49982e-07 -1.1887e-07 0)
(8.96993e-07 -1.23879e-07 0)
(9.46603e-07 -1.293e-07 0)
(9.99013e-07 -1.35163e-07 0)
(1.05443e-06 -1.41495e-07 0)
(1.11308e-06 -1.48332e-07 0)
(1.17526e-06 -1.55729e-07 0)
(1.24126e-06 -1.63769e-07 0)
(1.31146e-06 -1.72557e-07 0)
(1.38623e-06 -1.82165e-07 0)
(1.46595e-06 -1.92606e-07 0)
(1.55102e-06 -2.03936e-07 0)
(1.64194e-06 -2.16278e-07 0)
(1.73922e-06 -2.29748e-07 0)
(1.84345e-06 -2.44468e-07 0)
(1.95532e-06 -2.60625e-07 0)
(2.07566e-06 -2.78464e-07 0)
(2.20535e-06 -2.98206e-07 0)
(2.34527e-06 -3.19981e-07 0)
(2.49635e-06 -3.43934e-07 0)
(2.65977e-06 -3.70347e-07 0)
(2.83692e-06 -3.99591e-07 0)
(3.02931e-06 -4.3207e-07 0)
(3.2386e-06 -4.6821e-07 0)
(3.46666e-06 -5.08483e-07 0)
(3.71567e-06 -5.53466e-07 0)
(3.98808e-06 -6.03795e-07 0)
(4.28655e-06 -6.60132e-07 0)
(4.61417e-06 -7.23238e-07 0)
(4.97443e-06 -7.94021e-07 0)
(5.37125e-06 -8.73519e-07 0)
(5.80906e-06 -9.6284e-07 0)
(6.29279e-06 -1.06316e-06 0)
(6.8279e-06 -1.17573e-06 0)
(7.42054e-06 -1.30196e-06 0)
(8.07754e-06 -1.44336e-06 0)
(8.80626e-06 -1.60139e-06 0)
(9.61474e-06 -1.77751e-06 0)
(1.05116e-05 -1.97306e-06 0)
(1.1506e-05 -2.1891e-06 0)
(1.26072e-05 -2.42636e-06 0)
(1.38248e-05 -2.68503e-06 0)
(1.51678e-05 -2.96436e-06 0)
(1.66447e-05 -3.26259e-06 0)
(1.82623e-05 -3.5764e-06 0)
(2.00253e-05 -3.90047e-06 0)
(2.1935e-05 -4.22718e-06 0)
(2.39881e-05 -4.54593e-06 0)
(2.61753e-05 -4.84259e-06 0)
(2.84797e-05 -5.09914e-06 0)
(3.08746e-05 -5.29308e-06 0)
(3.33217e-05 -5.39738e-06 0)
(3.57696e-05 -5.38046e-06 0)
(3.81514e-05 -5.20676e-06 0)
(4.03841e-05 -4.83795e-06 0)
(4.23675e-05 -4.23461e-06 0)
(4.39858e-05 -3.35949e-06 0)
(4.51092e-05 -2.18119e-06 0)
(4.55988e-05 -6.79869e-07 0)
(4.53143e-05 1.14574e-06 0)
(4.41237e-05 3.26977e-06 0)
(4.19187e-05 5.62862e-06 0)
(3.86322e-05 8.10921e-06 0)
(3.42617e-05 1.05357e-05 0)
(2.88951e-05 1.26566e-05 0)
(2.27391e-05 1.41345e-05 0)
(1.61517e-05 1.45429e-05 0)
(9.65858e-06 1.3381e-05 0)
(4.03785e-06 1.01178e-05 0)
(3.77913e-07 4.30937e-06 0)
(-3.62367e-07 6.08213e-06 0)
(-3.90535e-06 1.38494e-05 0)
(-9.33541e-06 1.8058e-05 0)
(-1.55929e-05 1.94864e-05 0)
(-2.19326e-05 1.88761e-05 0)
(-2.78601e-05 1.68851e-05 0)
(-3.30409e-05 1.40619e-05 0)
(-3.72805e-05 1.0841e-05 0)
(-4.04941e-05 7.54762e-06 0)
(-4.2681e-05 4.41149e-06 0)
(-4.39002e-05 1.58196e-06 0)
(-4.42509e-05 -8.55803e-07 0)
(-4.38551e-05 -2.86563e-06 0)
(-4.28441e-05 -4.4479e-06 0)
(-4.13484e-05 -5.62751e-06 0)
(-3.9491e-05 -6.4451e-06 0)
(-3.73826e-05 -6.94948e-06 0)
(-3.51193e-05 -7.19259e-06 0)
(-3.27815e-05 -7.22519e-06 0)
(-3.04344e-05 -7.09432e-06 0)
(-2.81289e-05 -6.84229e-06 0)
(-2.59027e-05 -6.50495e-06 0)
(-2.37829e-05 -6.11265e-06 0)
(-2.17872e-05 -5.68945e-06 0)
(-1.99255e-05 -5.25448e-06 0)
(-1.82023e-05 -4.82198e-06 0)
(-1.66171e-05 -4.40259e-06 0)
(-1.51663e-05 -4.00326e-06 0)
(-1.38437e-05 -3.62873e-06 0)
(-1.2642e-05 -3.28147e-06 0)
(-1.15527e-05 -2.96256e-06 0)
(-1.0567e-05 -2.67168e-06 0)
(-9.6763e-06 -2.40831e-06 0)
(-8.87169e-06 -2.17074e-06 0)
(-8.14514e-06 -1.95739e-06 0)
(-7.48894e-06 -1.76644e-06 0)
(-6.89592e-06 -1.59567e-06 0)
(-6.35973e-06 -1.44351e-06 0)
(-5.87423e-06 -1.30757e-06 0)
(-5.4342e-06 -1.18664e-06 0)
(-5.03498e-06 -1.07877e-06 0)
(-4.67179e-06 -9.82571e-07 0)
(-4.34103e-06 -8.96982e-07 0)
(-4.03957e-06 -8.20484e-07 0)
(-3.76414e-06 -7.51957e-07 0)
(-3.51196e-06 -6.90733e-07 0)
(-3.28077e-06 -6.35945e-07 0)
(-3.06842e-06 -5.8668e-07 0)
(-2.87304e-06 -5.42333e-07 0)
(-2.69297e-06 -5.02414e-07 0)
(-2.5267e-06 -4.66384e-07 0)
(-2.37289e-06 -4.3378e-07 0)
(-2.23039e-06 -4.04253e-07 0)
(-2.09817e-06 -3.77491e-07 0)
(-1.97528e-06 -3.53185e-07 0)
(-1.86087e-06 -3.31068e-07 0)
(-1.75421e-06 -3.10913e-07 0)
(-1.65464e-06 -2.92505e-07 0)
(-1.56154e-06 -2.75652e-07 0)
(-1.47437e-06 -2.60212e-07 0)
(-1.39262e-06 -2.46072e-07 0)
(-1.31584e-06 -2.33117e-07 0)
(-1.24363e-06 -2.2122e-07 0)
(-1.17565e-06 -2.10272e-07 0)
(-1.11157e-06 -2.00177e-07 0)
(-1.05106e-06 -1.90868e-07 0)
(-9.93846e-07 -1.8227e-07 0)
(-9.39659e-07 -1.74338e-07 0)
(-8.88274e-07 -1.67005e-07 0)
(-8.3949e-07 -1.60241e-07 0)
(-7.93111e-07 -1.53992e-07 0)
(-7.4896e-07 -1.48209e-07 0)
(-7.06865e-07 -1.4284e-07 0)
(-6.66684e-07 -1.37847e-07 0)
(-6.28272e-07 -1.33235e-07 0)
(-5.91472e-07 -1.28965e-07 0)
(-5.56174e-07 -1.25033e-07 0)
(-5.22291e-07 -1.21394e-07 0)
(-4.89736e-07 -1.18015e-07 0)
(-4.58397e-07 -1.14888e-07 0)
(-4.28137e-07 -1.12e-07 0)
(-3.98857e-07 -1.09349e-07 0)
(-3.7052e-07 -1.06908e-07 0)
(-3.43079e-07 -1.04649e-07 0)
(-3.16448e-07 -1.02574e-07 0)
(-2.90527e-07 -1.00681e-07 0)
(-2.65247e-07 -9.89626e-08 0)
(-2.40565e-07 -9.7411e-08 0)
(-2.16435e-07 -9.60157e-08 0)
(-1.92781e-07 -9.47743e-08 0)
(-1.69536e-07 -9.36853e-08 0)
(-1.46669e-07 -9.27261e-08 0)
(-1.24157e-07 -9.18731e-08 0)
(-1.01942e-07 -9.11358e-08 0)
(-7.99476e-08 -9.05433e-08 0)
(-5.81221e-08 -9.01028e-08 0)
(-3.64456e-08 -8.97923e-08 0)
(-1.48894e-08 -8.95928e-08 0)
(6.60833e-09 -8.95064e-08 0)
(2.81067e-08 -8.95391e-08 0)
(4.96356e-08 -8.96879e-08 0)
(7.12205e-08 -8.99486e-08 0)
(9.29097e-08 -9.03251e-08 0)
(1.14767e-07 -9.08276e-08 0)
(1.36844e-07 -9.14608e-08 0)
(1.5917e-07 -9.22164e-08 0)
(1.81775e-07 -9.30899e-08 0)
(2.04711e-07 -9.40911e-08 0)
(2.28042e-07 -9.52309e-08 0)
(2.51825e-07 -9.65094e-08 0)
(2.76112e-07 -9.79251e-08 0)
(3.00948e-07 -9.94853e-08 0)
(3.26383e-07 -1.01206e-07 0)
(3.52479e-07 -1.03099e-07 0)
(3.79301e-07 -1.05159e-07 0)
(4.06918e-07 -1.07384e-07 0)
(4.35405e-07 -1.09792e-07 0)
(4.64841e-07 -1.12412e-07 0)
(4.95306e-07 -1.1526e-07 0)
(5.26875e-07 -1.18343e-07 0)
(5.59625e-07 -1.21666e-07 0)
(5.93649e-07 -1.25256e-07 0)
(6.2906e-07 -1.29138e-07 0)
(6.65982e-07 -1.33326e-07 0)
(7.04538e-07 -1.37836e-07 0)
(7.44837e-07 -1.42689e-07 0)
(7.86997e-07 -1.47929e-07 0)
(8.31169e-07 -1.53598e-07 0)
(8.77508e-07 -1.59723e-07 0)
(9.26187e-07 -1.66324e-07 0)
(9.77402e-07 -1.73442e-07 0)
(1.03136e-06 -1.81123e-07 0)
(1.08828e-06 -1.89429e-07 0)
(1.14841e-06 -1.98429e-07 0)
(1.212e-06 -2.08187e-07 0)
(1.27932e-06 -2.18755e-07 0)
(1.35067e-06 -2.30192e-07 0)
(1.42637e-06 -2.42571e-07 0)
(1.50679e-06 -2.56006e-07 0)
(1.59242e-06 -2.70649e-07 0)
(1.68374e-06 -2.86623e-07 0)
(1.78118e-06 -3.04048e-07 0)
(1.88532e-06 -3.2309e-07 0)
(1.99676e-06 -3.43923e-07 0)
(2.11614e-06 -3.66703e-07 0)
(2.24419e-06 -3.91609e-07 0)
(2.38176e-06 -4.18905e-07 0)
(2.52988e-06 -4.48972e-07 0)
(2.68965e-06 -4.82205e-07 0)
(2.86219e-06 -5.1894e-07 0)
(3.04877e-06 -5.59544e-07 0)
(3.25089e-06 -6.04492e-07 0)
(3.47024e-06 -6.54371e-07 0)
(3.7087e-06 -7.09827e-07 0)
(3.96835e-06 -7.71552e-07 0)
(4.25157e-06 -8.40381e-07 0)
(4.5611e-06 -9.17294e-07 0)
(4.89996e-06 -1.00334e-06 0)
(5.27153e-06 -1.09969e-06 0)
(5.67961e-06 -1.20765e-06 0)
(6.12851e-06 -1.32872e-06 0)
(6.62308e-06 -1.46456e-06 0)
(7.16874e-06 -1.617e-06 0)
(7.77145e-06 -1.78792e-06 0)
(8.43779e-06 -1.97932e-06 0)
(9.1751e-06 -2.19337e-06 0)
(9.99127e-06 -2.43221e-06 0)
(1.08948e-05 -2.69786e-06 0)
(1.18949e-05 -2.9922e-06 0)
(1.3001e-05 -3.31669e-06 0)
(1.42227e-05 -3.67212e-06 0)
(1.55699e-05 -4.05851e-06 0)
(1.70514e-05 -4.47447e-06 0)
(1.86755e-05 -4.91688e-06 0)
(2.04485e-05 -5.38043e-06 0)
(2.2374e-05 -5.85674e-06 0)
(2.44517e-05 -6.33387e-06 0)
(2.66764e-05 -6.79553e-06 0)
(2.90359e-05 -7.2202e-06 0)
(3.15098e-05 -7.58063e-06 0)
(3.40672e-05 -7.84318e-06 0)
(3.66649e-05 -7.96767e-06 0)
(3.92454e-05 -7.90762e-06 0)
(4.17355e-05 -7.61109e-06 0)
(4.40453e-05 -7.0227e-06 0)
(4.60678e-05 -6.08628e-06 0)
(4.76803e-05 -4.74966e-06 0)
(4.87472e-05 -2.97048e-06 0)
(4.91252e-05 -7.24248e-07 0)
(4.86714e-05 1.98546e-06 0)
(4.72542e-05 5.11493e-06 0)
(4.47686e-05 8.5659e-06 0)
(4.11538e-05 1.21698e-05 0)
(3.64168e-05 1.56711e-05 0)
(3.06569e-05 1.87108e-05 0)
(2.40934e-05 2.08149e-05 0)
(1.7099e-05 2.13891e-05 0)
(1.02179e-05 1.97288e-05 0)