/*--------------------------------*- C++ -*----------------------------------*\
| =========                 |                                                 |
| \\      /  F ield         | OpenFOAM: The Open Source CFD Toolbox           |
|  \\    /   O peration     | Version:  2412                                  |
|   \\  /    A nd           | Website:  www.openfoam.com                      |
|    \\/     M anipulation  |                                                 |
\*---------------------------------------------------------------------------*/
FoamFile
{
    version     2.0;
    format      ascii;
    arch        "LSB;label=32;scalar=64";
    class       volScalarField;
    location    "600";
    object      p;
}
// * * * * * * * * * * * * * * * * * * * * * * * * * * * * * * * * * * * * * //

dimensions      [0 2 -2 0 0 0 0];

internalField   nonuniform List<scalar> 
900
(
0
-7.42268e-06
-9.30445e-06
-2.8038e-06
1.21917e-05
3.46516e-05
6.27764e-05
9.44278e-05
0.000127337
0.000159246
0.000188036
0.000211819
0.000229025
0.000238462
0.000239368
0.000231435
0.000214824
0.000190174
0.000158572
0.000121519
8.08712e-05
3.87679e-05
-2.46049e-06
-4.04005e-05
-7.26751e-05
-9.71237e-05
-0.000112061
-0.000116766
-0.000112104
-0.000101568
-0.00148944
-0.00149789
-0.00149958
-0.00149357
-0.00148043
-0.00146112
-0.00143713
-0.00141025
-0.00138236
-0.00135538
-0.0013311
-0.00131115
-0.00129687
-0.00128928
-0.00128903
-0.00129639
-0.00131121
-0.00133292
-0.00136058
-0.00139288
-0.00142823
-0.00146477
-0.00150054
-0.00153349
-0.00156165
-0.00158325
-0.00159687
-0.00160183
-0.00159802
-0.00158684
-0.00447901
-0.0044896
-0.00449248
-0.00448771
-0.00447659
-0.00446009
-0.00443959
-0.00441662
-0.00439282
-0.00436983
-0.0043492
-0.00433233
-0.00432039
-0.00431426
-0.00431449
-0.00432132
-0.0043346
-0.00435384
-0.00437822
-0.00440658
-0.00443753
-0.00446947
-0.0045007
-0.00452946
-0.00455403
-0.00457288
-0.00458469
-0.00458864
-0.00458362
-0.00456971
-0.00896212
-0.00897475
-0.00897918
-0.00897596
-0.00896682
-0.0089528
-0.0089352
-0.00891544
-0.00889496
-0.00887519
-0.0088575
-0.0088431
-0.00883302
-0.00882802
-0.00882858
-0.00883489
-0.00884685
-0.008864
-0.00888561
-0.00891067
-0.00893796
-0.00896608
-0.00899352
-0.00901873
-0.00904019
-0.00905648
-0.00906627
-0.00906861
-0.00906173
-0.00904506
-0.0149263
-0.01494
-0.0149457
-0.0149439
-0.0149365
-0.0149247
-0.0149097
-0.0148928
-0.0148752
-0.0148582
-0.014843
-0.0148307
-0.0148222
-0.0148182
-0.0148189
-0.0148248
-0.0148355
-0.0148507
-0.0148699
-0.014892
-0.014916
-0.0149407
-0.0149648
-0.0149868
-0.0150054
-0.0150193
-0.0150271
-0.0150279
-0.0150195
-0.015001
-0.0223536
-0.0223676
-0.0223739
-0.0223732
-0.0223675
-0.0223577
-0.0223449
-0.0223304
-0.0223154
-0.0223008
-0.0222879
-0.0222774
-0.0222703
-0.022267
-0.0222679
-0.0222732
-0.0222828
-0.0222963
-0.0223132
-0.0223326
-0.0223537
-0.0223753
-0.0223963
-0.0224154
-0.0224314
-0.022443
-0.0224491
-0.0224485
-0.0224392
-0.0224202
-0.0312215
-0.0312351
-0.0312416
-0.0312418
-0.0312373
-0.0312292
-0.0312185
-0.0312063
-0.0311935
-0.0311811
-0.0311702
-0.0311613
-0.0311554
-0.0311527
-0.0311538
-0.0311585
-0.031167
-0.0311789
-0.0311936
-0.0312105
-0.0312288
-0.0312476
-0.0312657
-0.0312821
-0.0312957
-0.0313054
-0.03131
-0.0313085
-0.0312988
-0.0312802
-0.0415037
-0.0415162
-0.0415225
-0.0415232
-0.0415198
-0.0415132
-0.0415043
-0.0414941
-0.0414834
-0.0414731
-0.0414639
-0.0414566
-0.0414517
-0.0414496
-0.0414506
-0.0414549
-0.0414623
-0.0414726
-0.0414853
-0.0414998
-0.0415155
-0.0415315
-0.041547
-0.0415609
-0.0415723
-0.0415802
-0.0415835
-0.0415815
-0.0415721
-0.0415546
-0.0531699
-0.053181
-0.0531867
-0.0531877
-0.0531852
-0.0531799
-0.0531727
-0.0531644
-0.0531556
-0.0531471
-0.0531396
-0.0531336
-0.0531297
-0.0531281
-0.0531292
-0.0531329
-0.0531392
-0.0531479
-0.0531587
-0.0531709
-0.0531841
-0.0531976
-0.0532105
-0.053222
-0.0532314
-0.0532377
-0.0532401
-0.0532377
-0.0532291
-0.0532133
-0.066187
-0.0661964
-0.0662013
-0.0662024
-0.0662006
-0.0661965
-0.0661908
-0.0661842
-0.0661772
-0.0661705
-0.0661645
-0.0661598
-0.0661568
-0.0661557
-0.0661566
-0.0661598
-0.0661651
-0.0661723
-0.0661811
-0.0661911
-0.0662019
-0.0662128
-0.0662233
-0.0662326
-0.0662401
-0.0662451
-0.0662467
-0.0662443
-0.0662367
-0.0662232
-0.080519
-0.0805265
-0.0805305
-0.0805314
-0.0805302
-0.0805272
-0.0805229
-0.0805179
-0.0805126
-0.0805075
-0.080503
-0.0804995
-0.0804973
-0.0804966
-0.0804975
-0.0805001
-0.0805043
-0.08051
-0.0805169
-0.0805248
-0.0805333
-0.0805418
-0.0805499
-0.0805571
-0.0805628
-0.0805665
-0.0805676
-0.0805655
-0.0805592
-0.0805481
-0.0961275
-0.096133
-0.096136
-0.0961368
-0.096136
-0.0961339
-0.0961309
-0.0961274
-0.0961238
-0.0961202
-0.0961171
-0.0961147
-0.0961133
-0.0961129
-0.0961137
-0.0961157
-0.0961188
-0.0961231
-0.0961282
-0.096134
-0.0961401
-0.0961463
-0.0961522
-0.0961574
-0.0961615
-0.0961641
-0.0961647
-0.096163
-0.0961581
-0.0961498
-0.112972
-0.112976
-0.112978
-0.112978
-0.112978
-0.112977
-0.112975
-0.112973
-0.112971
-0.112969
-0.112967
-0.112965
-0.112965
-0.112965
-0.112965
-0.112967
-0.112969
-0.112972
-0.112975
-0.112979
-0.112983
-0.112987
-0.11299
-0.112994
-0.112996
-0.112998
-0.112998
-0.112997
-0.112993
-0.112988
-0.131012
-0.131013
-0.131014
-0.131014
-0.131014
-0.131014
-0.131013
-0.131012
-0.131012
-0.131011
-0.13101
-0.13101
-0.13101
-0.13101
-0.131011
-0.131011
-0.131012
-0.131014
-0.131015
-0.131017
-0.131019
-0.131021
-0.131022
-0.131024
-0.131025
-0.131026
-0.131026
-0.131025
-0.131023
-0.131021
-0.150203
-0.150202
-0.150202
-0.150202
-0.150202
-0.150202
-0.150203
-0.150204
-0.150204
-0.150205
-0.150205
-0.150206
-0.150206
-0.150207
-0.150207
-0.150207
-0.150207
-0.150207
-0.150207
-0.150207
-0.150207
-0.150207
-0.150206
-0.150206
-0.150206
-0.150205
-0.150205
-0.150205
-0.150205
-0.150205
-0.170502
-0.1705
-0.170499
-0.170498
-0.170499
-0.1705
-0.170501
-0.170503
-0.170505
-0.170507
-0.170509
-0.17051
-0.170511
-0.170512
-0.170512
-0.170511
-0.170511
-0.170509
-0.170508
-0.170505
-0.170503
-0.170501
-0.170499
-0.170497
-0.170495
-0.170494
-0.170493
-0.170494
-0.170496
-0.170499
-0.191867
-0.191863
-0.191861
-0.19186
-0.191861
-0.191863
-0.191865
-0.191868
-0.191871
-0.191874
-0.191877
-0.191879
-0.19188
-0.191881
-0.191881
-0.19188
-0.191878
-0.191876
-0.191873
-0.191869
-0.191865
-0.19186
-0.191856
-0.191853
-0.19185
-0.191848
-0.191847
-0.191848
-0.191851
-0.191857
-0.214254
-0.214248
-0.214245
-0.214244
-0.214245
-0.214247
-0.214251
-0.214255
-0.214259
-0.214263
-0.214267
-0.21427
-0.214272
-0.214273
-0.214273
-0.214271
-0.214268
-0.214265
-0.21426
-0.214254
-0.214248
-0.214242
-0.214236
-0.214231
-0.214227
-0.214224
-0.214223
-0.214225
-0.21423
-0.214238
-0.237621
-0.237613
-0.237609
-0.237608
-0.23761
-0.237613
-0.237617
-0.237622
-0.237627
-0.237633
-0.237637
-0.237641
-0.237643
-0.237644
-0.237644
-0.237642
-0.237638
-0.237633
-0.237627
-0.23762
-0.237612
-0.237604
-0.237597
-0.23759
-0.237584
-0.237581
-0.23758
-0.237582
-0.237588
-0.237598
-0.261927
-0.261918
-0.261913
-0.261912
-0.261914
-0.261917
-0.261923
-0.261929
-0.261935
-0.261941
-0.261947
-0.261951
-0.261954
-0.261955
-0.261955
-0.261952
-0.261948
-0.261941
-0.261934
-0.261925
-0.261916
-0.261906
-0.261897
-0.261888
-0.261881
-0.261877
-0.261876
-0.261878
-0.261885
-0.261898
-0.287132
-0.287122
-0.287117
-0.287116
-0.287118
-0.287122
-0.287128
-0.287136
-0.287143
-0.28715
-0.287157
-0.287162
-0.287165
-0.287167
-0.287166
-0.287163
-0.287157
-0.28715
-0.287141
-0.287131
-0.28712
-0.287108
-0.287097
-0.287087
-0.287079
-0.287074
-0.287072
-0.287074
-0.287082
-0.287097
-0.313201
-0.31319
-0.313184
-0.313183
-0.313185
-0.313191
-0.313198
-0.313206
-0.313215
-0.313223
-0.31323
-0.313236
-0.31324
-0.313242
-0.313241
-0.313237
-0.313231
-0.313223
-0.313212
-0.3132
-0.313187
-0.313174
-0.313161
-0.31315
-0.31314
-0.313134
-0.313132
-0.313134
-0.313143
-0.313159
-0.340097
-0.340085
-0.340079
-0.340079
-0.340082
-0.340088
-0.340096
-0.340106
-0.340116
-0.340125
-0.340133
-0.34014
-0.340144
-0.340146
-0.340145
-0.340141
-0.340134
-0.340124
-0.340113
-0.340099
-0.340084
-0.340069
-0.340055
-0.340042
-0.340031
-0.340023
-0.34002
-0.340022
-0.340031
-0.340048
-0.36779
-0.367778
-0.367772
-0.367772
-0.367775
-0.367783
-0.367792
-0.367803
-0.367814
-0.367825
-0.367834
-0.367842
-0.367847
-0.367849
-0.367848
-0.367843
-0.367835
-0.367825
-0.367811
-0.367796
-0.36778
-0.367763
-0.367746
-0.367731
-0.367719
-0.36771
-0.367706
-0.367707
-0.367716
-0.367734
-0.39625
-0.396238
-0.396232
-0.396233
-0.396238
-0.396246
-0.396257
-0.39627
-0.396282
-0.396294
-0.396305
-0.396314
-0.396319
-0.396322
-0.39632
-0.396315
-0.396307
-0.396295
-0.39628
-0.396263
-0.396245
-0.396226
-0.396207
-0.39619
-0.396176
-0.396165
-0.39616
-0.396161
-0.396169
-0.396186
-0.425453
-0.425441
-0.425437
-0.425438
-0.425444
-0.425454
-0.425467
-0.425481
-0.425495
-0.425509
-0.425521
-0.425531
-0.425537
-0.42554
-0.425539
-0.425534
-0.425524
-0.425511
-0.425494
-0.425475
-0.425455
-0.425433
-0.425413
-0.425393
-0.425377
-0.425365
-0.425358
-0.425358
-0.425365
-0.425382
-0.455378
-0.455367
-0.455363
-0.455366
-0.455373
-0.455385
-0.455399
-0.455415
-0.455432
-0.455448
-0.455462
-0.455473
-0.455481
-0.455484
-0.455483
-0.455477
-0.455467
-0.455452
-0.455434
-0.455412
-0.455389
-0.455365
-0.455342
-0.45532
-0.455302
-0.455287
-0.455279
-0.455277
-0.455283
-0.455298
-0.486006
-0.485997
-0.485995
-0.485999
-0.486008
-0.486021
-0.486038
-0.486057
-0.486076
-0.486094
-0.48611
-0.486123
-0.486132
-0.486136
-0.486135
-0.486129
-0.486118
-0.486101
-0.486081
-0.486057
-0.486031
-0.486004
-0.485977
-0.485953
-0.485932
-0.485916
-0.485905
-0.485902
-0.485906
-0.485918
-0.517327
-0.51732
-0.517318
-0.517323
-0.517334
-0.517349
-0.517369
-0.517391
-0.517413
-0.517434
-0.517453
-0.517469
-0.517479
-0.517485
-0.517484
-0.517477
-0.517465
-0.517446
-0.517423
-0.517396
-0.517367
-0.517336
-0.517306
-0.517278
-0.517254
-0.517235
-0.517223
-0.517219
-0.517222
-0.517232
-0.549336
-0.549329
-0.549327
-0.549332
-0.549345
-0.549363
-0.549386
-0.549412
-0.549438
-0.549463
-0.549486
-0.549504
-0.549517
-0.549524
-0.549524
-0.549517
-0.549502
-0.549482
-0.549455
-0.549425
-0.549391
-0.549355
-0.549321
-0.549288
-0.549261
-0.54924
-0.549227
-0.549223
-0.549227
-0.549237
)
;

boundaryField
{
    floor
    {
        type            calculated;
        value           nonuniform List<scalar> 
30
(
0.000374844
0.000367738
0.000366142
0.000372922
0.000388194
0.000410927
0.000439319
0.000471229
0.000504381
0.000536515
0.000565499
0.000589441
0.000606763
0.00061627
0.000617196
0.000609232
0.000592539
0.000567759
0.000535984
0.00049872
0.00045783
0.000415462
0.000373955
0.000335726
0.000303158
0.000278414
0.000263185
0.00025819
0.000262565
0.000272819
)
;
    }
    ceiling
    {
        type            calculated;
        value           nonuniform List<scalar> 
30
(
-0.565522
-0.565515
-0.565513
-0.565519
-0.565531
-0.56555
-0.565573
-0.565599
-0.565626
-0.565651
-0.565674
-0.565692
-0.565705
-0.565712
-0.565712
-0.565705
-0.56569
-0.56567
-0.565643
-0.565612
-0.565578
-0.565543
-0.565508
-0.565475
-0.565447
-0.565426
-0.565413
-0.565408
-0.565412
-0.565422
)
;
    }
    fixedWalls
    {
        type            calculated;
        value           nonuniform List<scalar> 
60
(
0
-0.00148944
-0.00447901
-0.00896212
-0.0149263
-0.0223536
-0.0312215
-0.0415037
-0.0531699
-0.066187
-0.080519
-0.0961275
-0.112972
-0.131012
-0.150203
-0.170502
-0.191867
-0.214254
-0.237621
-0.261927
-0.287132
-0.313201
-0.340097
-0.36779
-0.39625
-0.425453
-0.455378
-0.486006
-0.517327
-0.549336
-0.000101568
-0.00158684
-0.00456971
-0.00904506
-0.015001
-0.0224202
-0.0312802
-0.0415546
-0.0532133
-0.0662232
-0.0805481
-0.0961498
-0.112988
-0.131021
-0.150205
-0.170499
-0.191857
-0.214238
-0.237598
-0.261898
-0.287097
-0.313159
-0.340048
-0.367734
-0.396186
-0.425382
-0.455298
-0.485918
-0.517232
-0.549237
)
;
    }
    frontAndBack
    {
        type            empty;
    }
}


// ************************************************************************* //
