/*--------------------------------*- C++ -*----------------------------------*\
| =========                 |                                                 |
| \\      /  F ield         | OpenFOAM: The Open Source CFD Toolbox           |
|  \\    /   O peration     | Version:  2412                                  |
|   \\  /    A nd           | Website:  www.openfoam.com                      |
|    \\/     M anipulation  |                                                 |
\*---------------------------------------------------------------------------*/
FoamFile
{
    version     2.0;
    format      ascii;
    arch        "LSB;label=32;scalar=64";
    class       volScalarField;
    location    "600";
    object      p_rgh;
}
// * * * * * * * * * * * * * * * * * * * * * * * * * * * * * * * * * * * * * //

dimensions      [0 2 -2 0 0 0 0];

internalField   nonuniform List<scalar> 
900
(
0.000374844
0.000367738
0.000366142
0.000372922
0.000388194
0.000410927
0.000439319
0.000471229
0.000504381
0.000536515
0.000565499
0.000589441
0.000606763
0.00061627
0.000617196
0.000609232
0.000592539
0.000567759
0.000535984
0.00049872
0.00045783
0.000415462
0.000373955
0.000335726
0.000303158
0.000278414
0.000263185
0.00025819
0.000262565
0.000272819
0.00187993
0.00187425
0.00187508
0.0018836
0.00189921
0.00192097
0.00194737
0.00197657
0.00200666
0.00203565
0.00206168
0.00208306
0.00209839
0.00210661
0.00210703
0.0020994
0.00208385
0.00206097
0.00203174
0.00199754
0.00196001
0.00192108
0.0018828
0.00184725
0.00181644
0.0017922
0.00177596
0.0017684
0.00176965
0.00177828
0.00486099
0.00485786
0.0048619
0.00487353
0.00489148
0.00491477
0.00494195
0.00497137
0.00500127
0.00502984
0.00505533
0.00507616
0.00509101
0.00509889
0.00509915
0.00509155
0.00507623
0.00505374
0.00502503
0.00499138
0.00495437
0.0049158
0.00487758
0.00484159
0.00480967
0.0047835
0.00476444
0.00475333
0.00475127
0.00475809
0.0092884
0.00929001
0.00929887
0.00931534
0.00933774
0.00936498
0.00939558
0.00942793
0.00946033
0.00949099
0.00951816
0.00954029
0.00955605
0.00956445
0.00956487
0.00955703
0.00954109
0.0095176
0.00948752
0.00945212
0.009413
0.00937193
0.0093308
0.00929145
0.00925566
0.0092251
0.00920121
0.00918501
0.00917818
0.00918105
0.0151212
0.0151303
0.0151462
0.0151695
0.0151985
0.0152318
0.0152681
0.0153057
0.0153428
0.0153777
0.0154083
0.0154333
0.0154511
0.0154607
0.0154615
0.0154532
0.0154359
0.0154103
0.0153773
0.0153382
0.0152948
0.0152488
0.0152023
0.0151571
0.015115
0.0150778
0.0150469
0.0150236
0.0150097
0.0150056
0.0223076
0.0223269
0.0223519
0.022384
0.0224213
0.0224628
0.0225069
0.0225517
0.0225955
0.0226363
0.0226721
0.0227011
0.0227219
0.0227334
0.0227348
0.0227258
0.0227065
0.0226777
0.0226404
0.022596
0.0225464
0.0224934
0.0224393
0.0223859
0.0223354
0.0222894
0.0222496
0.022217
0.0221937
0.0221798
0.0307855
0.030817
0.030853
0.0308956
0.0309431
0.0309945
0.031048
0.0311017
0.0311538
0.0312019
0.0312441
0.0312783
0.0313029
0.0313166
0.0313187
0.0313089
0.0312872
0.0312544
0.0312117
0.0311606
0.0311032
0.0310415
0.0309779
0.0309146
0.0308537
0.030797
0.0307464
0.0307028
0.0306679
0.0306417
0.040483
0.0405286
0.0405771
0.0406316
0.0406907
0.0407532
0.0408175
0.0408815
0.040943
0.0409997
0.0410491
0.0410892
0.0411181
0.0411345
0.0411375
0.0411267
0.0411022
0.0410648
0.0410159
0.0409571
0.0408906
0.0408189
0.0407445
0.0406697
0.0405969
0.0405281
0.040465
0.0404088
0.0403606
0.0403201
0.0513205
0.0513813
0.0514435
0.0515109
0.0515826
0.0516573
0.0517332
0.0518083
0.0518801
0.0519459
0.0520033
0.0520498
0.0520834
0.0521027
0.0521065
0.0520946
0.052067
0.0520247
0.051969
0.0519019
0.0518257
0.0517431
0.0516568
0.0515696
0.0514838
0.0514017
0.0513251
0.0512549
0.0511921
0.0511357
0.0632113
0.0632882
0.0633647
0.0634457
0.0635305
0.0636178
0.063706
0.0637926
0.063875
0.0639503
0.0640159
0.0640689
0.0641074
0.0641296
0.0641344
0.0641214
0.0640907
0.0640432
0.0639805
0.0639048
0.0638185
0.0637245
0.063626
0.0635256
0.0634263
0.0633303
0.0632394
0.0631545
0.0630762
0.0630028
0.0760638
0.076157
0.0762483
0.076343
0.0764411
0.0765412
0.0766416
0.0767397
0.0768327
0.0769175
0.0769911
0.0770507
0.0770939
0.077119
0.0771247
0.0771106
0.0770767
0.0770242
0.0769547
0.0768704
0.076774
0.0766688
0.0765579
0.0764445
0.0763314
0.0762213
0.0761159
0.0760159
0.0759215
0.0758306
0.0897831
0.0898927
0.0899984
0.0901068
0.0902178
0.0903304
0.0904427
0.0905518
0.090655
0.0907487
0.09083
0.0908958
0.0909435
0.0909713
0.0909779
0.0909627
0.090926
0.0908687
0.0907926
0.0907002
0.0905943
0.0904782
0.0903555
0.0902293
0.090103
0.089979
0.0898591
0.0897442
0.0896337
0.0895253
0.104273
0.104398
0.104518
0.104639
0.104763
0.104887
0.10501
0.10513
0.105242
0.105344
0.105433
0.105504
0.105556
0.105586
0.105593
0.105577
0.105538
0.105476
0.105394
0.105295
0.10518
0.105054
0.10492
0.104782
0.104643
0.104506
0.104373
0.104243
0.104117
0.103991
0.119438
0.119578
0.119711
0.119844
0.119979
0.120114
0.120247
0.120376
0.120496
0.120605
0.120699
0.120776
0.120831
0.120863
0.120871
0.120854
0.120813
0.120748
0.120661
0.120555
0.120433
0.120298
0.120155
0.120006
0.119856
0.119707
0.11956
0.119417
0.119277
0.119135
0.135185
0.135338
0.135483
0.135627
0.135771
0.135916
0.136057
0.136193
0.13632
0.136435
0.136534
0.136614
0.136672
0.136707
0.136715
0.136698
0.136654
0.136586
0.136496
0.136385
0.136256
0.136115
0.135963
0.135806
0.135646
0.135486
0.135329
0.135174
0.135019
0.134862
0.151425
0.15159
0.151744
0.151898
0.15205
0.152202
0.15235
0.152492
0.152624
0.152743
0.152846
0.152928
0.152989
0.153024
0.153033
0.153015
0.152971
0.152901
0.152807
0.152693
0.15256
0.152414
0.152256
0.152092
0.151924
0.151756
0.151589
0.151423
0.151257
0.151087
0.168075
0.16825
0.168413
0.168573
0.168732
0.168889
0.169042
0.169187
0.169323
0.169444
0.169549
0.169633
0.169694
0.16973
0.169739
0.169722
0.169677
0.169606
0.169511
0.169395
0.16926
0.16911
0.168949
0.16878
0.168607
0.168432
0.168258
0.168084
0.167908
0.167726
0.185063
0.185245
0.185413
0.185578
0.185741
0.185901
0.186056
0.186204
0.18634
0.186462
0.186567
0.186652
0.186713
0.186749
0.186758
0.186741
0.186696
0.186626
0.186531
0.186415
0.18628
0.186129
0.185966
0.185795
0.185619
0.185441
0.185261
0.185081
0.184897
0.184707
0.202322
0.202508
0.202681
0.202848
0.203012
0.203173
0.203328
0.203475
0.20361
0.203731
0.203835
0.203918
0.203978
0.204014
0.204024
0.204006
0.203963
0.203894
0.203801
0.203686
0.203553
0.203404
0.203242
0.203072
0.202896
0.202716
0.202534
0.20235
0.202162
0.201965
0.2198
0.219988
0.220161
0.220328
0.220492
0.22065
0.220803
0.220946
0.221079
0.221197
0.221297
0.221378
0.221436
0.221471
0.22148
0.221464
0.221422
0.221356
0.221266
0.221155
0.221026
0.220881
0.220723
0.220556
0.220382
0.220204
0.220023
0.219839
0.219648
0.219449
0.237457
0.237643
0.237814
0.237979
0.238138
0.238292
0.238439
0.238578
0.238704
0.238817
0.238913
0.23899
0.239046
0.239079
0.239088
0.239073
0.239033
0.238971
0.238886
0.23878
0.238657
0.238519
0.238367
0.238206
0.238038
0.237865
0.237687
0.237505
0.237316
0.237117
0.255265
0.255448
0.255613
0.255772
0.255924
0.256071
0.256211
0.256341
0.25646
0.256566
0.256656
0.256727
0.256779
0.25681
0.256819
0.256805
0.256769
0.256711
0.256632
0.256535
0.25642
0.25629
0.256148
0.255996
0.255836
0.255671
0.2555
0.255324
0.255139
0.254943
0.273215
0.273389
0.273546
0.273696
0.273839
0.273975
0.274105
0.274225
0.274334
0.274431
0.274513
0.274578
0.274625
0.274654
0.274662
0.27465
0.274617
0.274565
0.274494
0.274406
0.274301
0.274183
0.274053
0.273912
0.273764
0.27361
0.273449
0.273282
0.273106
0.272917
0.291309
0.291471
0.291617
0.291755
0.291885
0.292009
0.292126
0.292233
0.292331
0.292416
0.292489
0.292547
0.292588
0.292613
0.292621
0.292611
0.292583
0.292538
0.292476
0.292398
0.292306
0.292202
0.292086
0.29196
0.291827
0.291686
0.291539
0.291385
0.29122
0.291043
0.309568
0.309715
0.309846
0.309969
0.310084
0.310193
0.310294
0.310387
0.31047
0.310543
0.310605
0.310653
0.310689
0.31071
0.310717
0.310709
0.310686
0.310649
0.310597
0.310532
0.310455
0.310366
0.310267
0.310159
0.310043
0.30992
0.30979
0.309651
0.309502
0.30934
0.32803
0.328158
0.328271
0.328375
0.328473
0.328563
0.328647
0.328723
0.32879
0.328849
0.328898
0.328937
0.328965
0.328982
0.328988
0.328982
0.328965
0.328936
0.328897
0.328846
0.328785
0.328715
0.328635
0.328547
0.328451
0.328348
0.328238
0.328119
0.32799
0.327847
0.346748
0.346852
0.346945
0.347028
0.347105
0.347175
0.347238
0.347295
0.347345
0.347387
0.347422
0.34745
0.34747
0.347483
0.347488
0.347485
0.347474
0.347455
0.347428
0.347393
0.347351
0.3473
0.347242
0.347177
0.347105
0.347025
0.346937
0.346842
0.346735
0.346617
0.365791
0.365869
0.365938
0.365998
0.366052
0.366099
0.36614
0.366175
0.366205
0.36623
0.36625
0.366265
0.366277
0.366285
0.366288
0.366288
0.366284
0.366275
0.366262
0.366245
0.366222
0.366194
0.366161
0.366121
0.366074
0.36602
0.365959
0.365889
0.365809
0.365718
0.385244
0.385294
0.385337
0.385372
0.385401
0.385423
0.385439
0.385451
0.385459
0.385464
0.385467
0.38547
0.385472
0.385474
0.385476
0.385479
0.385481
0.385484
0.385487
0.385488
0.385488
0.385485
0.385477
0.385465
0.385447
0.385422
0.385389
0.385347
0.385296
0.385236
0.405205
0.405227
0.405243
0.405251
0.405253
0.405247
0.405237
0.405223
0.405207
0.405191
0.405176
0.405163
0.405155
0.40515
0.405151
0.405157
0.405168
0.405183
0.405202
0.405224
0.405248
0.405272
0.405293
0.405312
0.405325
0.405331
0.405328
0.405316
0.405295
0.405268
)
;

boundaryField
{
    floor
    {
        type            fixedFluxPressure;
        gradient        uniform 0;
        value           nonuniform List<scalar> 
30
(
0.000374844
0.000367738
0.000366142
0.000372922
0.000388194
0.000410927
0.000439319
0.000471229
0.000504381
0.000536515
0.000565499
0.000589441
0.000606763
0.00061627
0.000617196
0.000609232
0.000592539
0.000567759
0.000535984
0.00049872
0.00045783
0.000415462
0.000373955
0.000335726
0.000303158
0.000278414
0.000263185
0.00025819
0.000262565
0.000272819
)
;
    }
    ceiling
    {
        type            fixedFluxPressure;
        gradient        nonuniform List<scalar> 
30
(
6.16803
6.15928
6.15064
6.14217
6.13392
6.12596
6.1184
6.11136
6.10499
6.0994
6.0947
6.09099
6.08834
6.08682
6.08648
6.08734
6.08939
6.0926
6.09693
6.10229
6.10859
6.11575
6.12363
6.13208
6.14098
6.15021
6.15971
6.16948
6.17964
6.19057
)
;
        value           nonuniform List<scalar> 
30
(
0.415478
0.415485
0.415487
0.415481
0.415469
0.41545
0.415427
0.415401
0.415374
0.415349
0.415326
0.415308
0.415295
0.415288
0.415288
0.415295
0.41531
0.41533
0.415357
0.415388
0.415422
0.415457
0.415492
0.415525
0.415553
0.415574
0.415587
0.415592
0.415588
0.415578
)
;
    }
    fixedWalls
    {
        type            fixedFluxPressure;
        gradient        uniform 0;
        value           nonuniform List<scalar> 
60
(
0.000374844
0.00187993
0.00486099
0.0092884
0.0151212
0.0223076
0.0307855
0.040483
0.0513205
0.0632113
0.0760638
0.0897831
0.104273
0.119438
0.135185
0.151425
0.168075
0.185063
0.202322
0.2198
0.237457
0.255265
0.273215
0.291309
0.309568
0.32803
0.346748
0.365791
0.385244
0.405205
0.000272819
0.00177828
0.00475809
0.00918105
0.0150056
0.0221798
0.0306417
0.0403201
0.0511357
0.0630028
0.0758306
0.0895253
0.103991
0.119135
0.134862
0.151087
0.167726
0.184707
0.201965
0.219449
0.237117
0.254943
0.272917
0.291043
0.30934
0.327847
0.346617
0.365718
0.385236
0.405268
)
;
    }
    frontAndBack
    {
        type            empty;
    }
}


// ************************************************************************* //
