/*--------------------------------*- C++ -*----------------------------------*\
| =========                 |                                                 |
| \\      /  F ield         | OpenFOAM: The Open Source CFD Toolbox           |
|  \\    /   O peration     | Version:  2412                                  |
|   \\  /    A nd           | Website:  www.openfoam.com                      |
|    \\/     M anipulation  |                                                 |
\*---------------------------------------------------------------------------*/
FoamFile
{
    version     2.0;
    format      ascii;
    arch        "LSB;label=32;scalar=64";
    class       surfaceScalarField;
    location    "600";
    object      phi;
}
// * * * * * * * * * * * * * * * * * * * * * * * * * * * * * * * * * * * * * //

dimensions      [0 3 -1 0 0 0 0];

oriented        oriented;

internalField   nonuniform List<scalar> 
1740
(
-2.08189e-09
1.94759e-09
-8.73115e-09
6.65081e-09
-1.82469e-08
9.51742e-09
-2.85575e-08
1.03128e-08
-3.80193e-08
9.46347e-09
-4.54425e-08
7.42439e-09
-5.00433e-08
4.60121e-09
-5.13765e-08
1.33276e-09
-4.92807e-08
-2.09694e-09
-4.3838e-08
-5.44449e-09
-3.53397e-08
-8.50069e-09
-2.42524e-08
-1.109e-08
-1.11842e-08
-1.3071e-08
3.15119e-09
-1.43382e-08
1.79713e-08
-1.48229e-08
3.2462e-08
-1.44934e-08
4.58163e-08
-1.33567e-08
5.7274e-08
-1.146e-08
6.61608e-08
-8.88865e-09
7.19254e-08
-5.76615e-09
7.41765e-08
-2.25228e-09
7.27179e-08
1.45785e-09
6.75825e-08
5.13519e-09
5.90706e-08
8.51229e-09
4.78006e-08
1.12711e-08
3.47714e-08
1.30309e-08
2.14333e-08
1.33407e-08
9.72319e-09
1.17137e-08
1.97687e-09
7.7511e-09
1.98214e-09
-7.08318e-09
9.03217e-09
-2.37858e-08
2.33605e-08
-4.58681e-08
3.16057e-08
-6.92844e-08
3.37349e-08
-9.06497e-08
3.0833e-08
-1.07367e-07
2.41443e-08
-1.17622e-07
1.48575e-08
-1.20325e-07
4.03464e-09
-1.15034e-07
-7.38919e-09
-1.01892e-07
-1.85902e-08
-8.15455e-08
-2.88504e-08
-5.50772e-08
-3.75623e-08
-2.39181e-08
-4.42342e-08
1.02373e-08
-4.84975e-08
4.55218e-08
-5.01111e-08
7.99906e-08
-4.89654e-08
1.11719e-07
-4.50874e-08
1.38899e-07
-3.86418e-08
1.59936e-07
-2.99277e-08
1.73545e-07
-1.93749e-08
1.78833e-07
-7.53927e-09
1.75388e-07
4.90443e-09
1.63357e-07
1.71693e-08
1.43522e-07
2.83518e-08
1.17384e-07
3.74156e-08
8.72397e-08
4.31833e-08
5.62352e-08
4.43544e-08
2.83354e-08
3.96231e-08
8.10265e-09
2.79935e-08
1.0089e-08
-1.06506e-08
1.96845e-08
-3.42177e-08
4.69329e-08
-6.43919e-08
6.17848e-08
-9.59417e-08
6.52884e-08
-1.2454e-07
5.94334e-08
-1.46809e-07
4.64142e-08
-1.60327e-07
2.8376e-08
-1.636e-07
7.30568e-09
-1.55995e-07
-1.4997e-08
-1.37672e-07
-3.69173e-08
-1.09494e-07
-5.70335e-08
-7.2926e-08
-7.4135e-08
-2.99273e-08
-8.72378e-08
1.71721e-08
-9.56017e-08
6.57975e-08
-9.87409e-08
1.13265e-07
-9.64368e-08
1.5692e-07
-8.87461e-08
1.94276e-07
-7.60001e-08
2.23147e-07
-5.87998e-08
2.41779e-07
-3.80074e-08
2.48974e-07
-1.47343e-08
2.44204e-07
9.67533e-09
2.27713e-07
3.36633e-08
2.00605e-07
5.54627e-08
1.64933e-07
7.3092e-08
1.23753e-07
8.43694e-08
8.11459e-08
8.69695e-08
4.2178e-08
7.85995e-08
1.28034e-08
5.73763e-08
2.28951e-08
-1.2567e-08
3.22548e-08
-4.00531e-08
7.44258e-08
-7.48678e-08
9.66053e-08
-1.10997e-07
1.01422e-07
-1.43576e-07
9.20157e-08
-1.68817e-07
7.16567e-08
-1.83984e-07
4.3543e-08
-1.87366e-07
1.06859e-08
-1.78226e-07
-2.41393e-08
-1.56733e-07
-5.84129e-08
-1.23871e-07
-8.98999e-08
-8.13237e-08
-1.16686e-07
-3.13537e-08
-1.37212e-07
2.33396e-08
-1.50299e-07
7.97683e-08
-1.55173e-07
1.34816e-07
-1.51488e-07
1.85404e-07
-1.39336e-07
2.28647e-07
-1.19245e-07
2.62019e-07
-9.21713e-08
2.83498e-07
-5.94861e-08
2.91716e-07
-2.29502e-08
2.86081e-07
1.53127e-08
2.66895e-07
5.28532e-08
2.35444e-07
8.69184e-08
1.94074e-07
1.14467e-07
1.46239e-07
1.32209e-07
9.65228e-08
1.36691e-07
5.06541e-08
1.24474e-07
1.5582e-08
9.24539e-08
3.84779e-08
-1.32226e-08
4.54806e-08
-4.22364e-08
1.03445e-07
-7.89269e-08
1.333e-07
-1.16893e-07
1.39392e-07
-1.51022e-07
1.26146e-07
-1.77354e-07
9.79895e-08
-1.93032e-07
5.92197e-08
-1.96261e-07
1.39132e-08
-1.86267e-07
-3.41367e-08
-1.63224e-07
-8.14596e-08
-1.28167e-07
-1.24961e-07
-8.28768e-08
-1.61982e-07
-2.97477e-08
-1.90346e-07
2.8357e-08
-2.08408e-07
8.82655e-08
-2.15085e-07
1.4667e-07
-2.09895e-07
2.00299e-07
-1.92968e-07
2.46095e-07
-1.65042e-07
2.81379e-07
-1.27456e-07
3.04015e-07
-8.21215e-08
3.12558e-07
-3.14925e-08
3.06392e-07
2.14806e-08
2.85841e-07
7.34066e-08
2.52265e-07
1.20497e-07
2.08129e-07
1.58606e-07
1.57052e-07
1.8329e-07
1.03846e-07
1.899e-07
5.45875e-08
1.73735e-07
1.67938e-08
1.30249e-07
5.52706e-08
-1.29914e-08
5.84753e-08
-4.17205e-08
1.32179e-07
-7.81348e-08
1.69718e-07
-1.1581e-07
1.7707e-07
-1.49628e-07
1.59965e-07
-1.7564e-07
1.24001e-07
-1.91003e-07
7.45805e-08
-1.93932e-07
1.68402e-08
-1.83659e-07
-4.44131e-08
-1.60361e-07
-1.04762e-07
-1.25072e-07
-1.60255e-07
-7.95723e-08
-2.07486e-07
-2.62604e-08
-2.43662e-07
3.19967e-08
-2.66669e-07
9.20215e-08
-2.75114e-07
1.505e-07
-2.68376e-07
2.04154e-07
-2.46625e-07
2.49921e-07
-2.10811e-07
2.85118e-07
-1.62654e-07
3.07606e-07
-1.04611e-07
3.15944e-07
-3.98295e-08
3.09513e-07
2.79117e-08
2.8864e-07
9.42803e-08
2.54683e-07
1.54456e-07
2.10103e-07
2.03188e-07
1.58518e-07
2.34875e-07
1.04762e-07
2.43655e-07
5.49829e-08
2.23513e-07
1.68439e-08
1.68387e-07
7.21123e-08
-1.21657e-08
7.06434e-08
-3.92969e-08
1.59313e-07
-7.38124e-08
2.04236e-07
-1.09568e-07
2.12826e-07
-1.41648e-07
1.92046e-07
-1.66267e-07
1.48618e-07
-1.80699e-07
8.90108e-08
-1.83242e-07
1.93799e-08
-1.73162e-07
-5.44966e-08
-1.50633e-07
-1.27295e-07
-1.16648e-07
-1.94245e-07
-7.2915e-08
-2.51223e-07
-2.17325e-08
-2.94848e-07
3.41509e-08
-3.22556e-07
9.16894e-08
-3.32655e-07
1.47706e-07
-3.24395e-07
1.9906e-07
-2.9798e-07
2.42812e-07
-2.54564e-07
2.7639e-07
-1.96233e-07
2.97743e-07
-1.25965e-07
3.05488e-07
-4.75743e-08
2.99031e-07
3.43685e-08
2.78683e-07
1.14627e-07
2.45749e-07
1.87389e-07
2.02594e-07
2.46341e-07
1.52708e-07
2.84759e-07
1.00768e-07
2.95593e-07
5.27432e-08
2.71535e-07
1.60717e-08
2.05055e-07
8.81825e-08
-1.09521e-08
8.15973e-08
-3.55668e-08
1.83929e-07
-6.70018e-08
2.35672e-07
-9.96221e-08
2.45446e-07
-1.28891e-07
2.21314e-07
-1.51307e-07
1.71033e-07
-1.64353e-07
1.02054e-07
-1.66458e-07
2.14815e-08
-1.56947e-07
-6.40098e-08
-1.35986e-07
-1.48259e-07
-1.04495e-07
-2.25739e-07
-6.40498e-08
-2.9167e-07
-1.67732e-08
-3.42127e-07
3.47998e-08
-3.74131e-07
8.78608e-08
-3.85717e-07
1.39481e-07
-3.76015e-07
1.86762e-07
-3.45261e-07
2.26993e-07
-2.94794e-07
2.57799e-07
-2.27039e-07
2.77287e-07
-1.45453e-07
2.84176e-07
-5.44628e-08
2.77916e-07
4.06281e-08
2.58795e-07
1.33748e-07
2.28022e-07
2.18161e-07
1.87797e-07
2.86565e-07
1.4137e-07
3.31184e-07
9.31101e-08
3.43851e-07
4.85908e-08
3.16052e-07
1.47293e-08
2.38915e-07
1.02913e-07
-9.4936e-09
9.10917e-08
-3.0973e-08
2.05409e-07
-5.85003e-08
2.63199e-07
-8.71133e-08
2.74058e-07
-1.12789e-07
2.46988e-07
-1.3241e-07
1.90653e-07
-1.43738e-07
1.13381e-07
-1.45377e-07
2.31179e-08
-1.3673e-07
-7.26578e-08
-1.17949e-07
-1.67042e-07
-8.98536e-08
-2.53836e-07
-5.3848e-08
-3.27676e-07
-1.18168e-08
-3.84157e-07
3.39892e-08
-4.19936e-07
8.10786e-08
-4.32805e-07
1.26853e-07
-4.21787e-07
1.68741e-07
-3.87146e-07
2.04335e-07
-3.30385e-07
2.31524e-07
-2.54226e-07
2.48625e-07
-1.62551e-07
2.54495e-07
-6.03313e-08
2.48645e-07
4.64795e-08
2.31331e-07
1.51063e-07
2.03634e-07
2.45859e-07
1.67529e-07
3.22671e-07
1.25937e-07
3.72776e-07
8.27864e-08
3.87003e-07
4.30823e-08
3.55758e-07
1.29989e-08
2.69001e-07
1.15915e-07
-7.88872e-09
9.89805e-08
-2.58385e-08
2.23358e-07
-4.89097e-08
2.86269e-07
-7.29225e-08
2.9807e-07
-9.44632e-08
2.68528e-07
-1.1088e-07
2.07068e-07
-1.20264e-07
1.22764e-07
-1.21428e-07
2.42814e-08
-1.13871e-07
-8.02157e-08
-9.77241e-08
-1.83189e-07
-7.36912e-08
-2.77868e-07
-4.29696e-08
-3.58396e-07
-7.16325e-09
-4.19962e-07
3.18142e-08
-4.5891e-07
7.18465e-08
-4.72834e-07
1.10727e-07
-4.60664e-07
1.4627e-07
-4.22685e-07
1.76429e-07
-3.6054e-07
1.99408e-07
-2.772e-07
2.13769e-07
-1.76908e-07
2.18538e-07
-6.50968e-08
2.13295e-07
5.1726e-08
1.98257e-07
1.66103e-07
1.74355e-07
2.69764e-07
1.43286e-07
3.53743e-07
1.07567e-07
4.08498e-07
7.05848e-08
4.23989e-07
3.66409e-08
3.89706e-07
1.10115e-08
2.94635e-07
1.2693e-07
-6.20653e-09
1.05187e-07
-2.03992e-08
2.37549e-07
-3.8683e-08
3.04553e-07
-5.77265e-08
3.17112e-07
-7.47909e-08
2.85591e-07
-8.7742e-08
2.20018e-07
-9.5044e-08
1.30065e-07
-9.57443e-08
2.4981e-08
-8.94444e-08
-8.65159e-08
-7.62577e-08
-1.96375e-07
-5.67564e-08
-2.97369e-07
-3.19088e-08
-3.83243e-07
-3.00787e-09
-4.48861e-07
2.8407e-08
-4.90323e-07
6.06354e-08
-5.0506e-07
9.19039e-08
-4.9193e-07
1.20456e-07
-4.51234e-07
1.44645e-07
-3.84725e-07
1.63023e-07
-2.95573e-07
1.74428e-07
-1.8831e-07
1.78071e-07
-6.87366e-08
1.73609e-07
5.61911e-08
1.61216e-07
1.78498e-07
1.41648e-07
2.89335e-07
1.16288e-07
3.79106e-07
8.71928e-08
4.37597e-07
5.71247e-08
4.54062e-07
2.95895e-08
4.17247e-07
8.86213e-09
3.15368e-07
1.35793e-07
-4.49638e-09
1.09683e-07
-1.48285e-08
2.47879e-07
-2.81611e-08
3.17884e-07
-4.20441e-08
3.30994e-07
-5.44515e-08
2.97997e-07
-6.38016e-08
2.29367e-07
-6.89576e-08
1.35219e-07
-6.92186e-08
2.52406e-08
-6.42977e-08
-9.1438e-08
-5.42883e-08
-2.06385e-07
-3.96233e-08
-3.12034e-07
-2.10276e-08
-4.01839e-07
5.37009e-10
-4.70426e-07
2.39282e-08
-5.13713e-07
4.78875e-08
-5.29019e-07
7.11014e-08
-5.15144e-07
9.22686e-08
-4.72402e-07
1.10167e-07
-4.02624e-07
1.23719e-07
-3.09126e-07
1.32059e-07
-1.96649e-07
1.34592e-07
-7.12692e-08
1.31057e-07
5.97264e-08
1.21581e-07
1.87975e-07
1.06727e-07
3.04189e-07
8.75378e-08
3.98297e-07
6.55641e-08
4.59573e-07
4.28948e-08
4.76734e-07
2.21757e-08
4.37968e-07
6.62051e-09
3.30924e-07
1.42411e-07
-2.79391e-09
1.12476e-07
-9.25518e-09
2.54337e-07
-1.7601e-08
3.26228e-07
-2.62715e-08
3.39661e-07
-3.39699e-08
3.05693e-07
-3.96842e-08
2.35078e-07
-4.26904e-08
1.38223e-07
-4.25493e-08
2.50969e-08
-3.90898e-08
-9.48999e-08
-3.23849e-08
-2.13092e-07
-2.27235e-08
-3.21697e-07
-1.05794e-08
-4.13986e-07
3.42613e-09
-4.84434e-07
1.85607e-08
-5.28849e-07
3.40202e-08
-5.4448e-07
4.89647e-08
-5.30091e-07
6.2561e-08
-4.86002e-07
7.40248e-08
-4.14091e-07
8.26617e-08
-3.17766e-07
8.79085e-08
-2.01899e-07
8.9374e-08
-7.27367e-08
8.688e-08
6.2219e-08
8.05005e-08
1.94354e-07
7.05979e-08
3.14091e-07
5.78528e-08
4.11042e-07
4.32872e-08
4.74139e-07
2.82829e-08
4.91738e-07
1.45922e-08
4.51658e-07
4.33964e-09
3.41173e-07
1.46747e-07
-1.12513e-09
1.13601e-07
-3.77445e-09
2.56983e-07
-7.19513e-09
3.29646e-07
-1.0709e-08
3.43171e-07
-1.37475e-08
3.08728e-07
-1.5871e-08
2.37198e-07
-1.6772e-08
1.39122e-07
-1.62745e-08
2.45971e-08
-1.43251e-08
-9.68519e-08
-1.09762e-08
-2.16443e-07
-6.37055e-09
-3.26303e-07
-7.29061e-10
-4.19628e-07
5.66936e-09
-4.90834e-07
1.25047e-08
-5.35686e-07
1.94288e-08
-5.51404e-07
2.60778e-08
-5.3674e-07
3.20892e-08
-4.92015e-07
3.71189e-08
-4.19123e-07
4.08575e-08
-3.21507e-07
4.30475e-08
-2.04091e-07
4.3502e-08
-7.31921e-08
4.21257e-08
6.35952e-08
3.8938e-08
1.97542e-07
3.40944e-08
3.18935e-07
2.7906e-08
4.17231e-07
2.08538e-08
4.81191e-07
1.35997e-08
4.98991e-07
6.99178e-09
4.58264e-07
2.06203e-09
3.461e-07
1.48811e-07
4.91203e-10
1.13108e-07
1.54417e-09
2.55925e-07
2.91402e-09
3.28272e-07
4.41883e-09
3.41663e-07
5.91301e-09
3.07231e-07
7.27292e-09
2.35836e-07
8.39576e-09
1.37997e-07
9.1984e-09
2.3794e-08
9.61904e-09
-9.72735e-08
9.62538e-09
-2.1645e-07
9.21989e-09
-3.25895e-07
8.43266e-09
-4.18838e-07
7.32233e-09
-4.89723e-07
5.9743e-09
-5.34337e-07
4.48932e-09
-5.49917e-07
2.97239e-09
-5.3522e-07
1.52519e-09
-4.90564e-07
2.37715e-10
-4.17833e-07
-8.19755e-10
-3.20447e-07
-1.60321e-09
-2.03304e-07
-2.09794e-09
-7.26942e-08
-2.31725e-09
6.38183e-08
-2.29699e-09
1.97526e-07
-2.08795e-09
3.1873e-07
-1.74773e-09
4.16895e-07
-1.33482e-09
4.80782e-07
-9.03491e-10
4.98562e-07
-5.02203e-10
4.57865e-07
-1.76829e-10
3.45779e-07
1.48642e-07
2.04231e-09
1.11064e-07
6.6515e-09
2.51311e-07
1.26232e-08
3.22298e-07
1.89464e-08
3.35337e-07
2.4786e-08
3.0139e-07
2.94743e-08
2.31146e-07
3.25119e-08
1.34958e-07
3.35667e-08
2.27405e-08
3.24672e-08
-9.61729e-08
2.9201e-08
-2.13185e-07
2.39119e-08
-3.20605e-07
1.6875e-08
-4.11798e-07
8.47666e-09
-4.81323e-07
-8.06599e-10
-5.25054e-07
-1.04401e-08
-5.40282e-07
-1.98644e-08
-5.25793e-07
-2.85281e-08
-4.81897e-07
-3.5921e-08
-4.10436e-07
-4.16049e-08
-3.14759e-07
-4.52438e-08
-1.99661e-07
-4.66272e-08
-7.13057e-08
-4.56885e-08
6.28852e-08
-4.25171e-08
1.9436e-07
-3.73642e-08
3.13583e-07
-3.06466e-08
4.10182e-07
-2.29485e-08
4.73088e-07
-1.50225e-08
4.9064e-07
-7.79081e-09
4.50639e-07
-2.34929e-09
3.40347e-07
1.46298e-07
3.51958e-09
1.07542e-07
1.15125e-08
2.43315e-07
2.18572e-08
3.11951e-07
3.27512e-08
3.24441e-07
4.27035e-08
2.91437e-07
5.05296e-08
2.23319e-07
5.53535e-08
1.30133e-07
5.66087e-08
2.14861e-08
5.40232e-08
-9.3585e-08
4.76047e-08
-2.06768e-07
3.76315e-08
-3.10634e-07
2.46134e-08
-3.98779e-07
9.2504e-09
-4.65959e-07
-7.60847e-09
-5.08196e-07
-2.50161e-08
-5.22877e-07
-4.19806e-08
-5.08831e-07
-5.75226e-08
-4.66356e-07
-7.07314e-08
-3.97228e-07
-8.0819e-08
-3.0467e-07
-8.71703e-08
-1.93308e-07
-8.93878e-08
-6.90868e-08
-8.73279e-08
6.08266e-08
-8.11292e-08
1.88163e-07
-7.12329e-08
3.03687e-07
-5.83973e-08
3.97346e-07
-4.37085e-08
4.584e-07
-2.85871e-08
4.75521e-07
-1.47941e-08
4.36851e-07
-4.43666e-09
3.29997e-07
1.41858e-07
4.91695e-09
1.02624e-07
1.61008e-08
2.32129e-07
3.05581e-08
2.97493e-07
4.57386e-08
3.09258e-07
5.95351e-08
2.7764e-07
7.02814e-08
2.12572e-07
7.67506e-08
1.2366e-07
7.8159e-08
2.00752e-08
7.41451e-08
-8.9569e-08
6.47396e-08
-1.97364e-07
5.03463e-08
-2.96245e-07
3.16949e-08
-3.80131e-07
9.78071e-09
-4.44046e-07
-1.41973e-08
-4.8422e-07
-3.89059e-08
-4.98172e-07
-6.29498e-08
-4.84791e-07
-8.49495e-08
-4.44361e-07
-1.0362e-07
-3.78561e-07
-1.17845e-07
-2.90449e-07
-1.26747e-07
-1.84408e-07
-1.29753e-07
-6.60834e-08
-1.26645e-07
5.77154e-08
-1.17604e-07
1.79119e-07
-1.03247e-07
2.89327e-07
-8.46501e-08
3.78747e-07
-6.33676e-08
4.37116e-07
-4.14479e-08
4.53602e-07
-2.14445e-08
4.16849e-07
-6.42608e-09
3.14976e-07
1.35425e-07
6.22938e-09
9.63944e-08
2.03933e-08
2.17963e-07
3.86752e-08
2.7921e-07
5.78252e-08
2.90104e-07
7.51658e-08
2.60297e-07
8.85918e-08
1.99147e-07
9.65566e-08
1.15692e-07
9.80785e-08
1.85476e-08
9.27178e-08
-8.42079e-08
8.05329e-08
-1.85177e-07
6.20448e-08
-2.77759e-07
3.81834e-08
-3.56273e-07
1.02159e-08
-4.1608e-07
-2.03357e-08
-4.53667e-07
-5.17827e-08
-4.66723e-07
-8.23599e-08
-4.54212e-07
-1.10322e-07
-4.16397e-07
-1.3404e-07
-3.54842e-07
-1.52096e-07
-2.72392e-07
-1.63372e-07
-1.73132e-07
-1.67129e-07
-6.23255e-08
-1.63078e-07
5.36654e-08
-1.51438e-07
1.6748e-07
-1.32981e-07
2.70872e-07
-1.09071e-07
3.54839e-07
-8.16895e-08
4.09738e-07
-5.34626e-08
4.25379e-07
-2.76778e-08
3.91067e-07
-8.30182e-09
2.95596e-07
1.27126e-07
7.45098e-09
8.89427e-08
2.43638e-08
2.01047e-07
4.61509e-08
2.57422e-07
6.8919e-08
2.67333e-07
8.94714e-08
2.39739e-07
1.05312e-07
1.8331e-07
1.14614e-07
1.06392e-07
1.1622e-07
1.69372e-08
1.09621e-07
-7.76118e-08
9.49076e-08
-1.7046e-07
7.27102e-08
-2.55557e-07
4.41391e-08
-3.27701e-07
1.07034e-08
-3.82645e-07
-2.57851e-08
-4.17178e-07
-6.33176e-08
-4.29187e-07
-9.9797e-08
-4.17727e-07
-1.3315e-07
-3.83039e-07
-1.61441e-07
-3.26546e-07
-1.8298e-07
-2.50847e-07
-1.96432e-07
-1.59674e-07
-2.00909e-07
-5.78442e-08
-1.96053e-07
4.88144e-08
-1.82111e-07
1.53543e-07
-1.59991e-07
2.48758e-07
-1.31308e-07
3.26163e-07
-9.8423e-08
3.76861e-07
-6.44769e-08
3.91439e-07
-3.34198e-08
3.60012e-07
-1.00383e-08
2.72216e-07
1.171e-07
8.57271e-09
8.03689e-08
2.79741e-08
1.8164e-07
5.29035e-08
2.32494e-07
7.88924e-08
2.41344e-07
1.02285e-07
2.16341e-07
1.20244e-07
1.6535e-07
1.30711e-07
9.59308e-08
1.32382e-07
1.52681e-08
1.24687e-07
-6.99222e-08
1.07746e-07
-1.53521e-07
8.22914e-08
-2.301e-07
4.9594e-08
-2.95001e-07
1.13721e-08
-3.44425e-07
-3.03127e-08
-3.75497e-07
-7.31745e-08
-3.86328e-07
-1.14828e-07
-3.76076e-07
-1.52915e-07
-3.44953e-07
-1.85233e-07
-2.94229e-07
-2.09858e-07
-2.26223e-07
-2.25263e-07
-1.44271e-07
-2.30426e-07
-5.26824e-08
-2.24929e-07
4.33161e-08
-2.09037e-07
1.37651e-07
-1.83769e-07
2.2349e-07
-1.50952e-07
2.93346e-07
-1.13269e-07
3.39177e-07
-7.43018e-08
3.52469e-07
-3.85759e-08
3.24282e-07
-1.16069e-08
2.45252e-07
1.0549e-07
9.57795e-09
7.07908e-08
3.1161e-08
1.60052e-07
5.8803e-08
2.04852e-07
8.75468e-08
2.12607e-07
1.13351e-07
1.90533e-07
1.33097e-07
1.45599e-07
1.44537e-07
8.44919e-08
1.46259e-07
1.35515e-08
1.37647e-07
-6.13126e-08
1.18843e-07
-1.34724e-07
9.06663e-08
-2.01928e-07
5.45259e-08
-2.58861e-07
1.23148e-08
-3.02213e-07
-3.37004e-08
-3.29483e-07
-8.10071e-08
-3.39024e-07
-1.26984e-07
-3.30102e-07
-1.69038e-07
-3.02901e-07
-2.04747e-07
-2.58523e-07
-2.31992e-07
-1.98982e-07
-2.49085e-07
-1.27181e-07
-2.54893e-07
-4.68773e-08
-2.48941e-07
3.73616e-08
-2.31505e-07
1.20213e-07
-2.03689e-07
1.95673e-07
-1.67488e-07
2.57142e-07
-1.25841e-07
2.97525e-07
-8.26856e-08
3.09308e-07
-4.30193e-08
2.84614e-07
-1.2982e-08
2.15222e-07
9.24978e-08
1.04348e-08
6.03578e-08
3.38155e-08
1.36668e-07
6.36397e-08
1.75022e-07
9.45693e-08
1.81686e-07
1.22273e-07
1.6283e-07
1.4342e-07
1.24446e-07
1.55618e-07
7.22866e-08
1.57383e-07
1.17898e-08
1.48074e-07
-5.19983e-08
1.2785e-07
-1.145e-07
9.75981e-08
-1.71677e-07
5.88303e-08
-2.20093e-07
1.35755e-08
-2.56955e-07
-3.57443e-08
-2.80157e-07
-8.64473e-08
-2.88314e-07
-1.35736e-07
-2.80807e-07
-1.80844e-07
-2.57787e-07
-2.19183e-07
-2.20179e-07
-2.48485e-07
-1.69675e-07
-2.6694e-07
-1.0872e-07
-2.73327e-07
-4.04844e-08
-2.67123e-07
3.11639e-08
-2.48606e-07
1.01703e-07
-2.18939e-07
1.66011e-07
-1.80233e-07
2.18442e-07
-1.35615e-07
2.5291e-07
-8.9277e-08
2.62977e-07
-4.65687e-08
2.41917e-07
-1.41173e-08
1.82773e-07
7.8388e-08
1.10852e-08
4.92748e-08
3.57552e-08
1.12001e-07
6.70834e-08
1.4368e-07
9.9485e-08
1.49286e-07
1.28457e-07
1.33863e-07
1.50538e-07
1.02367e-07
1.63249e-07
5.95712e-08
1.65058e-07
9.97903e-09
1.55321e-07
-4.22567e-08
1.34217e-07
-9.33915e-08
1.02675e-07
-1.40135e-07
6.22719e-08
-1.79694e-07
1.51206e-08
-2.09808e-07
-3.62617e-08
-2.28778e-07
-8.90914e-08
-2.35487e-07
-1.40466e-07
-2.29434e-07
-1.87516e-07
-2.1074e-07
-2.27552e-07
-1.80146e-07
-2.58214e-07
-1.39016e-07
-2.77616e-07
-8.93204e-08
-2.84474e-07
-3.36284e-08
-2.7823e-07
2.49182e-08
-2.59157e-07
8.26274e-08
-2.28445e-07
1.35295e-07
-1.88273e-07
1.78265e-07
-1.41871e-07
2.06505e-07
-9.35815e-08
2.14688e-07
-4.89579e-08
1.97296e-07
-1.49168e-08
1.48717e-07
6.34744e-08
1.14325e-08
3.78398e-08
3.66901e-08
8.67547e-08
6.86333e-08
1.11726e-07
1.01597e-07
1.16318e-07
1.31042e-07
1.04423e-07
1.53473e-07
7.99411e-08
1.66391e-07
4.66518e-08
1.68252e-07
8.10946e-09
1.58423e-07
-3.24327e-08
1.37102e-07
-7.20694e-08
1.05236e-07
-1.08266e-07
6.44229e-08
-1.38878e-07
1.67946e-08
-1.62179e-07
-3.51126e-08
-1.76871e-07
-8.84958e-08
-1.82104e-07
-1.40435e-07
-1.77495e-07
-1.88041e-07
-1.63134e-07
-2.28604e-07
-1.39583e-07
-2.59743e-07
-1.07876e-07
-2.79546e-07
-6.95172e-08
-2.86705e-07
-2.64691e-08
-2.80639e-07
1.88531e-08
-2.61607e-07
6.35944e-08
-2.30793e-07
1.0448e-07
-1.90386e-07
1.37858e-07
-1.43636e-07
1.59756e-07
-9.49123e-08
1.65967e-07
-4.9801e-08
1.52179e-07
-1.52467e-08
1.14168e-07
4.82216e-08
1.13274e-08
2.65035e-08
3.61908e-08
6.19065e-08
6.75623e-08
8.03536e-08
9.99134e-08
8.3964e-08
1.28811e-07
7.55213e-08
1.50847e-07
5.79107e-08
1.63576e-07
3.39298e-08
1.65496e-07
6.19128e-09
1.55996e-07
-2.2936e-08
1.35287e-07
-5.13624e-08
1.04305e-07
-7.72837e-08
6.46139e-08
-9.91854e-08
1.82885e-08
-1.15851e-07
-3.22094e-08
-1.26371e-07
-8.41627e-08
-1.30148e-07
-1.34742e-07
-1.26914e-07
-1.81145e-07
-1.16729e-07
-2.20744e-07
-9.99831e-08
-2.51218e-07
-7.74002e-08
-2.707e-07
-5.00336e-08
-2.779e-07
-1.92667e-08
-2.72235e-07
1.31891e-08
-2.53934e-07
4.52945e-08
-2.2414e-07
7.46862e-08
-1.84979e-07
9.86997e-08
-1.39625e-07
1.14406e-07
-9.23396e-08
1.18683e-07
-4.85413e-08
1.08372e-07
-1.49264e-08
8.05656e-08
3.3299e-08
1.05441e-08
1.59501e-08
3.36564e-08
3.88046e-08
6.28795e-08
5.11309e-08
9.30885e-08
5.37554e-08
1.20127e-07
4.84781e-08
1.40789e-07
3.72457e-08
1.52792e-07
2.19306e-08
1.54741e-07
4.24736e-09
1.46083e-07
-1.42751e-08
1.27028e-07
-3.2308e-08
9.84612e-08
-4.87186e-08
6.18394e-08
-6.25651e-08
1.90831e-08
-7.30954e-08
-2.75384e-08
-7.97498e-08
-7.55258e-08
-8.21618e-08
-1.22277e-07
-8.01639e-08
-1.65216e-07
-7.37913e-08
-2.01917e-07
-6.32828e-08
-2.30237e-07
-4.90811e-08
-2.48437e-07
-3.18349e-08
-2.55305e-07
-1.24001e-08
-2.50275e-07
8.15696e-09
-2.33535e-07
2.85521e-08
-2.06126e-07
4.72767e-08
-1.70028e-07
6.26008e-08
-1.2821e-07
7.25871e-08
-8.46695e-08
7.51377e-08
-4.44364e-08
6.81431e-08
-1.3666e-08
4.97821e-08
1.96353e-08
8.77591e-09
7.16924e-09
2.83284e-08
1.92549e-08
5.33562e-08
2.61058e-08
7.94156e-08
2.76991e-08
1.0284e-07
2.50531e-08
1.20801e-07
1.92786e-08
1.31314e-07
1.1413e-08
1.33192e-07
2.36883e-09
1.25984e-07
-7.06431e-09
1.09893e-07
-1.6215e-08
8.56949e-08
-2.45187e-08
5.46423e-08
-3.15113e-08
1.83724e-08
-3.68244e-08
-2.11905e-08
-4.01857e-08
-6.1934e-08
-4.14172e-08
-1.01661e-07
-4.04364e-08
-1.38192e-07
-3.72591e-08
-1.69474e-07
-3.20001e-08
-1.9368e-07
-2.48739e-08
-2.09318e-07
-1.61959e-08
-2.15333e-07
-6.38503e-09
-2.11208e-07
4.03269e-09
-1.97072e-07
1.44156e-08
-1.73789e-07
2.39952e-08
-1.43055e-07
3.18683e-08
-1.07461e-07
3.69914e-08
-7.05227e-08
3.81948e-08
-3.66526e-08
3.42862e-08
-1.11134e-08
2.42369e-08
8.52795e-09
5.67751e-09
1.48946e-09
1.94333e-08
5.5011e-09
3.7655e-08
7.88453e-09
5.68838e-08
8.47483e-09
7.42617e-08
7.68223e-09
8.7631e-08
5.9126e-09
9.55229e-08
3.51994e-09
9.70942e-08
7.9501e-10
9.2052e-08
-2.02366e-09
8.05767e-08
-4.74048e-09
6.32518e-08
-7.19437e-09
4.09944e-08
-9.25429e-09
1.49866e-08
-1.08171e-08
-1.33927e-08
-1.18071e-08
-4.26358e-08
-1.2175e-08
-7.11758e-08
-1.18974e-08
-9.74578e-08
-1.09779e-08
-1.20011e-07
-9.44807e-09
-1.37518e-07
-7.36697e-09
-1.48893e-07
-4.82228e-09
-1.53349e-07
-1.93097e-09
-1.50477e-07
1.1587e-09
-1.40325e-07
4.2625e-09
-1.23484e-07
7.15321e-09
-1.01172e-07
9.55364e-09
-7.53101e-08
1.1127e-08
-4.85813e-08
1.14692e-08
-2.44484e-08
1.01412e-08
-6.93664e-09
6.71858e-09
1.603e-09
1.49101e-09
6.99187e-09
1.48739e-08
2.33457e-08
3.10271e-08
3.6941e-08
4.04629e-08
4.12594e-08
3.92366e-08
3.44969e-08
2.73034e-08
1.805e-08
7.23385e-09
-4.57246e-09
-1.67467e-08
-2.86433e-08
-3.96204e-08
-4.90676e-08
-5.64341e-08
-6.12562e-08
-6.31868e-08
-6.20273e-08
-5.77639e-08
-5.06107e-08
-4.10587e-08
-2.99323e-08
-1.84521e-08
-8.31421e-09
-1.59569e-09
)
;

boundaryField
{
    floor
    {
        type            calculated;
        value           uniform 0;
    }
    ceiling
    {
        type            calculated;
        value           uniform 0;
    }
    fixedWalls
    {
        type            calculated;
        value           uniform 0;
    }
    frontAndBack
    {
        type            empty;
    }
}


// ************************************************************************* //
