/*--------------------------------*- C++ -*----------------------------------*\
| =========                 |                                                 |
| \\      /  F ield         | OpenFOAM: The Open Source CFD Toolbox           |
|  \\    /   O peration     | Version:  2412                                  |
|   \\  /    A nd           | Website:  www.openfoam.com                      |
|    \\/     M anipulation  |                                                 |
\*---------------------------------------------------------------------------*/
FoamFile
{
    version     2.0;
    format      ascii;
    arch        "LSB;label=32;scalar=64";
    class       volVectorField;
    location    "600";
    object      U;
}
// * * * * * * * * * * * * * * * * * * * * * * * * * * * * * * * * * * * * * //

dimensions      [0 1 -1 0 0 0 0];

internalField   nonuniform List<vector> 
900
(
(-1.93124e-07 -2.08998e-07 0)
(-1.34672e-05 2.7806e-06 0)
(-3.92033e-05 4.67272e-06 0)
(-7.02925e-05 5.20384e-06 0)
(-0.000100957 4.77383e-06 0)
(-0.00012699 3.72574e-06 0)
(-0.000145465 2.32207e-06 0)
(-0.000154583 7.45469e-07 0)
(-0.000153466 -8.70999e-07 0)
(-0.000142021 -2.42222e-06 0)
(-0.000120832 -3.82125e-06 0)
(-9.10609e-05 -4.99696e-06 0)
(-5.4344e-05 -5.89274e-06 0)
(-1.26916e-05 -6.46689e-06 0)
(3.16262e-05 -6.69304e-06 0)
(7.61854e-05 -6.55793e-06 0)
(0.000118527 -6.06325e-06 0)
(0.00015627 -5.22775e-06 0)
(0.000187235 -4.08517e-06 0)
(0.000209557 -2.68452e-06 0)
(0.000221796 -1.08978e-06 0)
(0.000223046 6.1975e-07 0)
(0.000213037 2.34969e-06 0)
(0.000192236 3.98452e-06 0)
(0.000161985 5.37039e-06 0)
(0.000124661 6.29443e-06 0)
(8.39031e-05 6.45325e-06 0)
(4.47864e-05 5.45772e-06 0)
(1.39016e-05 2.91258e-06 0)
(-5.7832e-07 -6.81238e-07 0)
(-3.37444e-06 1.31194e-05 0)
(-4.08108e-05 3.86353e-05 0)
(-0.000102025 5.41062e-05 0)
(-0.000173113 5.83683e-05 0)
(-0.000242486 5.35085e-05 0)
(-0.000301237 4.19397e-05 0)
(-0.000342761 2.58829e-05 0)
(-0.000362755 7.2417e-06 0)
(-0.000358975 -1.23619e-05 0)
(-0.000331024 -3.15263e-05 0)
(-0.000280141 -4.90423e-05 0)
(-0.000208978 -6.38934e-05 0)
(-0.000121369 -7.52597e-05 0)
(-2.20666e-05 -8.25286e-05 0)
(8.35193e-05 -8.53007e-05 0)
(0.000189594 -8.33927e-05 0)
(0.000290284 -7.68471e-05 0)
(0.000379918 -6.5937e-05 0)
(0.000453323 -5.11591e-05 0)
(0.00050611 -3.3229e-05 0)
(0.000534947 -1.30734e-05 0)
(0.000537819 8.1778e-06 0)
(0.000514273 2.92e-05 0)
(0.00046564 4.8453e-05 0)
(0.000395287 6.41259e-05 0)
(0.000308855 7.40891e-05 0)
(0.000214507 7.58869e-05 0)
(0.000122893 6.69632e-05 0)
(4.72987e-05 4.54207e-05 0)
(3.35183e-06 1.39343e-05 0)
(-5.58728e-06 4.09308e-05 0)
(-6.03365e-05 0.000101204 0)
(-0.000144966 0.000135084 0)
(-0.00024123 0.00014354 0)
(-0.000334309 0.000130967 0)
(-0.000412771 0.000102404 0)
(-0.000467904 6.27505e-05 0)
(-0.000493874 1.64725e-05 0)
(-0.000487541 -3.2446e-05 0)
(-0.000448255 -8.04661e-05 0)
(-0.000377621 -0.000124491 0)
(-0.00027921 -0.000161894 0)
(-0.000158247 -0.000190546 0)
(-2.12553e-05 -0.000208848 0)
(0.000124312 -0.000215754 0)
(0.000270456 -0.00021079 0)
(0.000409075 -0.000194075 0)
(0.000532351 -0.000166324 0)
(0.000633175 -0.000128834 0)
(0.000705545 -8.34683e-05 0)
(0.000744944 -3.26327e-05 0)
(0.000748704 2.0755e-05 0)
(0.000716323 7.33004e-05 0)
(0.000649759 0.000121125 0)
(0.000553696 0.000159827 0)
(0.000435756 0.000184478 0)
(0.000306674 0.000189743 0)
(0.000180069 0.000170363 0)
(7.30129e-05 0.0001223 0)
(6.30819e-06 4.66142e-05 0)
(-6.63226e-06 7.67126e-05 0)
(-7.10561e-05 0.000179719 0)
(-0.000169203 0.000234862 0)
(-0.000279798 0.000247375 0)
(-0.00038607 0.000224805 0)
(-0.00047524 0.000175266 0)
(-0.000537508 0.000106721 0)
(-0.000566236 2.66163e-05 0)
(-0.000557799 -5.82381e-05 0)
(-0.000511406 -0.000141697 0)
(-0.00042886 -0.00021833 0)
(-0.000314253 -0.000283503 0)
(-0.000173605 -0.000333443 0)
(-1.4465e-05 -0.000365308 0)
(0.000154523 -0.00037723 0)
(0.000324072 -0.000368373 0)
(0.000484776 -0.000338957 0)
(0.000627564 -0.000290254 0)
(0.000744206 -0.000224573 0)
(0.000827768 -0.000145223 0)
(0.000873064 -5.64626e-05 0)
(0.000877063 3.65619e-05 0)
(0.000839253 0.0001279 0)
(0.00076195 0.000210832 0)
(0.000650556 0.000277879 0)
(0.000513741 0.000320888 0)
(0.000363586 0.000331253 0)
(0.00021534 0.00030049 0)
(8.85203e-05 0.000221337 0)
(7.86254e-06 9.03626e-05 0)
(-6.86676e-06 0.000116088 0)
(-7.48709e-05 0.000265928 0)
(-0.000178467 0.000343848 0)
(-0.000294871 0.000360221 0)
(-0.000406376 0.000326346 0)
(-0.000499619 0.000253731 0)
(-0.000564368 0.000153601 0)
(-0.000593683 3.65742e-05 0)
(-0.000583749 -8.75096e-05 0)
(-0.000533726 -0.000209678 0)
(-0.000445507 -0.000321953 0)
(-0.000323403 -0.000417488 0)
(-0.000173788 -0.000490693 0)
(-4.65571e-06 -0.000537345 0)
(0.000174815 -0.000554664 0)
(0.000354765 -0.000541411 0)
(0.000525208 -0.000497919 0)
(0.000676516 -0.000426083 0)
(0.00079996 -0.000329336 0)
(0.000888199 -0.000212587 0)
(0.000935757 -8.21467e-05 0)
(0.000939448 5.43923e-05 0)
(0.000898755 0.000188285 0)
(0.000816143 0.000309735 0)
(0.000697306 0.000407977 0)
(0.000551331 0.000471427 0)
(0.000390871 0.000487968 0)
(0.000231962 0.000445456 0)
(9.54661e-05 0.000332516 0)
(8.39464e-06 0.000139815 0)
(-6.60454e-06 0.000155883 0)
(-7.37278e-05 0.000353624 0)
(-0.000176514 0.000454837 0)
(-0.000292079 0.000475012 0)
(-0.00040268 0.000429414 0)
(-0.000494968 0.000333093 0)
(-0.000558756 0.000200614 0)
(-0.000587142 4.58149e-05 0)
(-0.000576338 -0.000118386 0)
(-0.000525513 -0.00028014 0)
(-0.00043656 -0.000428861 0)
(-0.000313792 -0.000555436 0)
(-0.000163585 -0.000652405 0)
(6.05683e-06 -0.000714122 0)
(0.000185937 -0.000736864 0)
(0.000366181 -0.000718977 0)
(0.000536779 -0.00066091 0)
(0.000688087 -0.000565202 0)
(0.000811359 -0.000436444 0)
(0.000899249 -0.000281199 0)
(0.000946278 -0.000107882 0)
(0.000949263 7.34023e-05 0)
(0.00090769 0.000251051 0)
(0.000824023 0.000412134 0)
(0.000703949 0.00054254 0)
(0.000556539 0.000627188 0)
(0.000394462 0.000650313 0)
(0.000233865 0.000595847 0)
(9.59293e-05 0.000447875 0)
(8.26472e-06 0.00019091 0)
(-6.05867e-06 0.000193935 0)
(-6.91961e-05 0.000438185 0)
(-0.000166515 0.000562218 0)
(-0.000276168 0.000586161 0)
(-0.00038115 0.000529135 0)
(-0.000468637 0.00040968 0)
(-0.000528866 0.000245644 0)
(-0.000555235 5.40123e-05 0)
(-0.000544128 -0.000149294 0)
(-0.000494762 -0.000349623 0)
(-0.000408962 -0.000533849 0)
(-0.000290864 -0.000690645 0)
(-0.000146582 -0.000810726 0)
(1.62134e-05 -0.000887049 0)
(0.000188702 -0.000914973 0)
(0.000361424 -0.000892435 0)
(0.000524781 -0.000819999 0)
(0.000669527 -0.00070083 0)
(0.000787276 -0.000540655 0)
(0.000870981 -0.000347653 0)
(0.000915388 -0.000132297 0)
(0.00091744 9.28531e-05 0)
(0.000876641 0.000313404 0)
(0.000795352 0.000513362 0)
(0.000679034 0.000675342 0)
(0.000536418 0.000780812 0)
(0.000379736 0.000810368 0)
(0.000224646 0.000743979 0)
(9.17181e-05 0.000561181 0)
(7.73168e-06 0.000240731 0)
(-5.35659e-06 0.000228823 0)
(-6.24176e-05 0.00051634 0)
(-0.000150929 0.000661857 0)
(-0.000250922 0.000689466 0)
(-0.000346742 0.000621817 0)
(-0.000426524 0.000480718 0)
(-0.000481243 0.000287118 0)
(-0.000504802 6.09754e-05 0)
(-0.000493873 -0.000178966 0)
(-0.000447747 -0.000415419 0)
(-0.000368116 -0.000632877 0)
(-0.000258806 -0.00081794 0)
(-0.000125461 -0.000959605 0)
(2.48409e-05 -0.00104953 0)
(0.000183965 -0.0010822 0)
(0.000343191 -0.00105517 0)
(0.000493667 -0.000969125 0)
(0.000626863 -0.000827804 0)
(0.000735041 -0.000638 0)
(0.000811692 -0.000409407 0)
(0.00085196 -0.000154431 0)
(0.000853017 0.000112063 0)
(0.000814397 0.000373055 0)
(0.000738289 0.000609657 0)
(0.000629759 0.000801381 0)
(0.000496931 0.00092641 0)
(0.000351215 0.000961851 0)
(0.000207251 0.000883884 0)
(8.42166e-05 0.000667786 0)
(6.95787e-06 0.000287253 0)
(-4.57313e-06 0.000259637 0)
(-5.41992e-05 0.00058585 0)
(-0.000131605 0.000750803 0)
(-0.000219273 0.000781851 0)
(-0.000303361 0.000704717 0)
(-0.000373313 0.000544139 0)
(-0.000421095 0.000323879 0)
(-0.000441284 6.6595e-05 0)
(-0.000430928 -0.0002064 0)
(-0.00038941 -0.000475434 0)
(-0.000318246 -0.000722844 0)
(-0.000220844 -0.000933357 0)
(-0.000102223 -0.00109443 0)
(3.13338e-05 -0.00119653 0)
(0.000172605 -0.00123337 0)
(0.000313858 -0.00120219 0)
(0.000447239 -0.00110371 0)
(0.000565176 -0.000942242 0)
(0.000660794 -0.000725521 0)
(0.000728307 -0.000464608 0)
(0.000763393 -0.000173656 0)
(0.000763526 0.000130383 0)
(0.000728289 0.000428099 0)
(0.000659637 0.000697967 0)
(0.000562109 0.000916656 0)
(0.000443 0.00105933 0)
(0.00031257 0.00109988 0)
(0.000183992 0.00101104 0)
(7.44461e-05 0.000764303 0)
(6.04427e-06 0.000329084 0)
(-3.75167e-06 0.000285814 0)
(-4.51078e-05 0.000645245 0)
(-0.000109911 0.000827046 0)
(-0.000183461 0.000861166 0)
(-0.000254051 0.000775888 0)
(-0.000312696 0.000598467 0)
(-0.000352552 0.000355105 0)
(-0.000369002 7.08225e-05 0)
(-0.000359541 -0.000230826 0)
(-0.00032366 -0.000528087 0)
(-0.000262664 -0.000801427 0)
(-0.000179466 -0.00103395 0)
(-7.83409e-05 -0.00121176 0)
(3.53662e-05 -0.00132433 0)
(0.000155519 -0.0013647 0)
(0.000275553 -0.00132978 0)
(0.000388794 -0.00122041 0)
(0.000488807 -0.00104132 0)
(0.000569744 -0.000801093 0)
(0.000626675 -0.000511969 0)
(0.00065591 -0.000189615 0)
(0.000655288 0.000147199 0)
(0.000624447 0.000476974 0)
(0.000565062 0.000775867 0)
(0.000481032 0.00101804 0)
(0.000378641 0.00117599 0)
(0.000266734 0.00122078 0)
(0.000156661 0.00112214 0)
(6.3155e-05 0.000848322 0)
(5.05328e-06 0.000365286 0)
(-2.91876e-06 0.000307041 0)
(-3.5545e-05 0.00069363 0)
(-8.68594e-05 0.000889312 0)
(-0.00014519 0.000926006 0)
(-0.000201169 0.00083404 0)
(-0.000247569 0.000642717 0)
(-0.000278877 0.000380263 0)
(-0.000291381 7.36627e-05 0)
(-0.00028308 -0.000251661 0)
(-0.000253582 -0.000572227 0)
(-0.00020396 -0.000866953 0)
(-0.000136575 -0.00111759 0)
(-5.48776e-05 -0.00130917 0)
(3.68284e-05 -0.00143029 0)
(0.00013361 -0.00147346 0)
(0.000230196 -0.00143536 0)
(0.000321219 -0.00131686 0)
(0.000401508 -0.00112308 0)
(0.000466351 -0.000863278 0)
(0.000511772 -0.000550665 0)
(0.000534785 -0.000202163 0)
(0.000533631 0.000161948 0)
(0.00050801 0.000518425 0)
(0.000459276 0.000841482 0)
(0.000390602 0.00110317 0)
(0.000307115 0.00127374 0)
(0.000216038 0.00132188 0)
(0.000126639 0.00121482 0)
(5.08944e-05 0.000918195 0)
(4.02312e-06 0.000395243 0)
(-2.09148e-06 0.000323171 0)
(-2.58001e-05 0.000730538 0)
(-6.32024e-05 0.00093689 0)
(-0.000105752 0.000975564 0)
(-0.000146535 0.000878414 0)
(-0.000180191 0.000676313 0)
(-0.000202636 0.000399058 0)
(-0.000211126 7.51662e-05 0)
(-0.000204201 -0.000268481 0)
(-0.000181599 -0.000607059 0)
(-0.000144143 -0.000918286 0)
(-9.36079e-05 -0.00118288 0)
(-3.25672e-05 -0.00138501 0)
(3.57808e-05 -0.00151266 0)
(0.000107783 -0.0015579 0)
(0.000179537 -0.00151723 0)
(0.000247068 -0.00139156 0)
(0.000306542 -0.00118629 0)
(0.000354459 -0.000911191 0)
(0.000387858 -0.000580235 0)
(0.000404501 -0.000211308 0)
(0.00040306 0.000174135 0)
(0.000383294 0.000551489 0)
(0.000346205 0.000893436 0)
(0.000294174 0.00117036 0)
(0.000231066 0.00135073 0)
(0.000162339 0.00140136 0)
(9.5e-05 0.00128752 0)
(3.80761e-05 0.00097286 0)
(2.9765e-06 0.00041858 0)
(-1.28091e-06 0.000334182 0)
(-1.60833e-05 0.000755815 0)
(-3.95005e-05 0.000969505 0)
(-6.61283e-05 0.0010095 0)
(-9.15445e-05 0.00090868 0)
(-0.000112315 0.000699012 0)
(-0.000125829 0.000411395 0)
(-0.000130351 7.5425e-05 0)
(-0.00012498 -0.000280988 0)
(-0.00010959 -0.000632082 0)
(-8.47467e-05 -0.00095474 0)
(-5.16185e-05 -0.00122897 0)
(-1.1877e-05 -0.00143835 0)
(3.24195e-05 -0.00157043 0)
(7.89368e-05 -0.00161701 0)
(0.000125181 -0.00157444 0)
(0.000168609 -0.00144366 0)
(0.000206764 -0.00123027 0)
(0.000237397 -0.000944387 0)
(0.000258591 -0.000600495 0)
(0.000268884 -0.000217153 0)
(0.000267389 0.000183364 0)
(0.000253924 0.00057549 0)
(0.000229116 0.000930812 0)
(0.000194511 0.00121852 0)
(0.000152644 0.0014058 0)
(0.000107123 0.00145812 0)
(6.25859e-05 0.00133935 0)
(2.50144e-05 0.00101173 0)
(1.92805e-06 0.000435113 0)
(-4.94654e-07 0.000340141 0)
(-6.54883e-06 0.00076955 0)
(-1.6171e-05 0.000987214 0)
(-2.70559e-05 0.00102783 0)
(-3.72619e-05 0.000924851 0)
(-4.52849e-05 0.000710844 0)
(-5.00007e-05 0.000417344 0)
(-5.0688e-05 7.45675e-05 0)
(-4.70125e-05 -0.000288989 0)
(-3.89862e-05 -0.000647035 0)
(-2.69118e-05 -0.000975997 0)
(-1.13468e-05 -0.00125549 0)
(6.94456e-06 -0.00146879 0)
(2.70523e-05 -0.00160321 0)
(4.79654e-05 -0.0016504 0)
(6.86051e-05 -0.00160664 0)
(8.78679e-05 -0.00147289 0)
(0.000104682 -0.00125483 0)
(0.000118055 -0.000962767 0)
(0.000127123 -0.000611467 0)
(0.000131203 -0.000219849 0)
(0.000129856 0.000189354 0)
(0.000122951 0.000590023 0)
(0.000110735 0.00095311 0)
(9.38934e-05 0.00124709 0)
(7.36053e-05 0.00143838 0)
(5.15837e-05 0.00149165 0)
(3.00646e-05 0.00136992 0)
(1.19582e-05 0.00103462 0)
(8.91468e-07 0.000444809 0)
(2.62103e-07 0.00034118 0)
(2.69228e-06 0.000772005 0)
(6.48072e-06 0.000990327 0)
(1.09161e-05 0.00103088 0)
(1.55144e-05 0.000927208 0)
(1.98815e-05 0.000712051 0)
(2.36771e-05 0.000417103 0)
(2.66229e-05 7.27451e-05 0)
(2.84975e-05 -0.000292381 0)
(2.91531e-05 -0.000651867 0)
(2.85459e-05 -0.000982055 0)
(2.67282e-05 -0.0012625 0)
(2.38319e-05 -0.00147643 0)
(2.00782e-05 -0.00161113 0)
(1.57554e-05 -0.00165824 0)
(1.11793e-05 -0.00161401 0)
(6.66544e-06 -0.00147942 0)
(2.50781e-06 -0.00126014 0)
(-1.04761e-06 -0.000966513 0)
(-3.82576e-06 -0.000613326 0)
(-5.73798e-06 -0.000219566 0)
(-6.78507e-06 0.000191941 0)
(-7.04603e-06 0.000594938 0)
(-6.65747e-06 0.000960197 0)
(-5.78717e-06 0.00125597 0)
(-4.61364e-06 0.00144843 0)
(-3.30826e-06 0.00150195 0)
(-2.02583e-06 0.0013793 0)
(-8.90176e-07 0.00104161 0)
(-1.175e-07 0.000447749 0)
(9.86681e-07 0.000337479 0)
(1.15634e-05 0.000763572 0)
(2.8236e-05 0.000979342 0)
(4.73869e-05 0.00101915 0)
(6.61918e-05 0.000916237 0)
(8.24236e-05 0.000703036 0)
(9.43256e-05 0.000410966 0)
(0.000100655 7.01187e-05 0)
(0.00010066 -0.000291148 0)
(9.4065e-05 -0.000646709 0)
(8.10764e-05 -0.000973183 0)
(6.23414e-05 -0.00125039 0)
(3.88663e-05 -0.00146176 0)
(1.19655e-05 -0.00159475 0)
(-1.68193e-05 -0.00164111 0)
(-4.58215e-05 -0.00159715 0)
(-7.33506e-05 -0.00146382 0)
(-9.77896e-05 -0.00124672 0)
(-0.000117693 -0.000956037 0)
(-0.00013188 -0.000606379 0)
(-0.000139514 -0.00021649 0)
(-0.000140169 0.000191064 0)
(-0.000133873 0.000590297 0)
(-0.000121133 0.000952249 0)
(-0.00010295 0.00124544 0)
(-8.0823e-05 0.00143629 0)
(-5.67617e-05 0.00148944 0)
(-3.32514e-05 0.00136789 0)
(-1.33719e-05 0.00103306 0)
(-1.08656e-06 0.000444085 0)
(1.67823e-06 0.000329246 0)
(2.0012e-05 0.000744736 0)
(4.89375e-05 0.000954894 0)
(8.2062e-05 0.000993335 0)
(0.00011433 0.000892576 0)
(0.000141774 0.000684326 0)
(0.000161291 0.000399288 0)
(0.000170725 6.68411e-05 0)
(0.000168831 -0.00028536 0)
(0.000155218 -0.000631859 0)
(0.000130334 -0.000949895 0)
(9.53931e-05 -0.00121984 0)
(5.22395e-05 -0.00142561 0)
(3.23116e-06 -0.00155501 0)
(-4.88981e-05 -0.00160001 0)
(-0.000101198 -0.00155704 0)
(-0.000150668 -0.001427 0)
(-0.000194433 -0.00121534 0)
(-0.000229905 -0.000931965 0)
(-0.000254943 -0.000591047 0)
(-0.000267998 -0.000210818 0)
(-0.000268235 0.000186758 0)
(-0.000255627 0.000576358 0)
(-0.000231034 0.000929724 0)
(-0.000196243 0.00121611 0)
(-0.000154015 0.00140268 0)
(-0.000108112 0.00145484 0)
(-6.3255e-05 0.00133636 0)
(-2.53673e-05 0.00100943 0)
(-2.01542e-06 0.000434015 0)
(2.33684e-06 0.000316714 0)
(2.79996e-05 0.000716047 0)
(6.84656e-05 0.000917718 0)
(0.000114714 0.00095423 0)
(0.000159588 0.000856977 0)
(0.000197491 0.000656532 0)
(0.00022407 0.000382468 0)
(0.000236316 6.30499e-05 0)
(0.000232532 -0.000275162 0)
(0.000212239 -0.000607752 0)
(0.000176113 -0.000912898 0)
(0.000125896 -0.00117181 0)
(6.42214e-05 -0.00136912 0)
(-5.57145e-06 -0.00149314 0)
(-7.96298e-05 -0.00153622 0)
(-0.000153804 -0.00149492 0)
(-0.000223873 -0.00137011 0)
(-0.000285784 -0.00116701 0)
(-0.000335878 -0.00089505 0)
(-0.000371115 -0.000567805 0)
(-0.000389276 -0.000202718 0)
(-0.000389136 0.000179171 0)
(-0.000370612 0.00055357 0)
(-0.000334881 0.000893334 0)
(-0.000284465 0.00116889 0)
(-0.000223292 0.00134862 0)
(-0.000156773 0.00139918 0)
(-9.17274e-05 0.00128562 0)
(-3.6782e-05 0.000971403 0)
(-2.91356e-06 0.000417806 0)
(2.96291e-06 0.000300127 0)
(3.54938e-05 0.000678107 0)
(8.6715e-05 0.000868632 0)
(0.000145144 0.000902728 0)
(0.000201665 0.000810285 0)
(0.000249188 0.000620339 0)
(0.000282223 0.000360942 0)
(0.000296986 5.88684e-05 0)
(0.000291369 -0.00026077 0)
(0.000264831 -0.00057494 0)
(0.000218274 -0.000863069 0)
(0.00015392 -0.00110746 0)
(7.5125e-05 -0.00129364 0)
(-1.38659e-05 -0.00141065 0)
(-0.000108167 -0.00145128 0)
(-0.000202527 -0.0014123 0)
(-0.000291609 -0.00129453 0)
(-0.000370278 -0.00110285 0)
(-0.000433896 -0.000846137 0)
(-0.000478595 -0.00053715 0)
(-0.000501533 -0.000192301 0)
(-0.000501121 0.000168588 0)
(-0.000477214 0.000522593 0)
(-0.000431269 0.000844062 0)
(-0.000366466 0.00110501 0)
(-0.000287799 0.00127547 0)
(-0.000202184 0.00132381 0)
(-0.000118377 0.00121684 0)
(-4.75198e-05 0.000919803 0)
(-3.78101e-06 0.00039581 0)
(3.55689e-06 0.000279745 0)
(4.24574e-05 0.000631566 0)
(0.000103566 0.000808538 0)
(0.000173128 0.000839825 0)
(0.000240232 0.000753438 0)
(0.000296444 0.000576504 0)
(0.000335277 0.000335182 0)
(0.000352263 5.44061e-05 0)
(0.000344929 -0.000242474 0)
(0.000312686 -0.000534108 0)
(0.000256661 -0.000801455 0)
(0.000179519 -0.00102814 0)
(8.52563e-05 -0.0012008 0)
(-2.1074e-05 -0.0013093 0)
(-0.000133655 -0.00134701 0)
(-0.000246247 -0.00131092 0)
(-0.000352509 -0.00120181 0)
(-0.000446343 -0.00102417 0)
(-0.000522231 -0.000786184 0)
(-0.00057556 -0.00049962 0)
(-0.000602925 -0.000179647 0)
(-0.000602401 0.000155395 0)
(-0.000573774 0.000484259 0)
(-0.000518738 0.000783125 0)
(-0.000441045 0.00102596 0)
(-0.00034663 0.00118488 0)
(-0.000243742 0.00123036 0)
(-0.000142879 0.00113144 0)
(-5.74538e-05 0.000855641 0)
(-4.5956e-06 0.00036843 0)
(4.11893e-06 0.000255844 0)
(4.88337e-05 0.000577146 0)
(0.000118844 0.000738445 0)
(0.000198349 0.000766637 0)
(0.00027484 0.00068748 0)
(0.000338705 0.000525852 0)
(0.000382606 0.000305684 0)
(0.000401513 4.97487e-05 0)
(0.000392643 -0.000220653 0)
(0.000355363 -0.000486098 0)
(0.00029101 -0.000729318 0)
(0.000202653 -0.000935486 0)
(9.48483e-05 -0.00109249 0)
(-2.6656e-05 -0.00119118 0)
(-0.000155239 -0.00122553 0)
(-0.000283802 -0.00119285 0)
(-0.000405136 -0.00109384 0)
(-0.000512303 -0.000932532 0)
(-0.000599022 -0.000716332 0)
(-0.000660031 -0.00045587 0)
(-0.000691431 -0.000164877 0)
(-0.000690994 0.000140018 0)
(-0.000658432 0.000439512 0)
(-0.000595629 0.000711916 0)
(-0.000506815 0.000933487 0)
(-0.000398716 0.00107874 0)
(-0.000280723 0.00112071 0)
(-0.000164826 0.00103105 0)
(-6.64258e-05 0.000780056 0)
(-5.34041e-06 0.000336068 0)
(4.6465e-06 0.000228739 0)
(5.45226e-05 0.000515677 0)
(0.000132269 0.000659518 0)
(0.000220309 0.000684447 0)
(0.000304797 0.000613599 0)
(0.000375135 0.000469299 0)
(0.000423284 0.000272967 0)
(0.000443785 4.49437e-05 0)
(0.000433625 -0.000195782 0)
(0.000392133 -0.000431921 0)
(0.000320817 -0.000648161 0)
(0.000223094 -0.000831392 0)
(0.000103997 -0.00097092 0)
(-3.01503e-05 -0.00105866 0)
(-0.000172072 -0.0010893 0)
(-0.000313965 -0.00106046 0)
(-0.000447906 -0.00097274 0)
(-0.000566267 -0.000829711 0)
(-0.000662137 -0.000637885 0)
(-0.000729711 -0.000406644 0)
(-0.000764675 -0.000148119 0)
(-0.000764541 0.000122961 0)
(-0.000728947 0.000389461 0)
(-0.000659913 0.000632074 0)
(-0.000562043 0.000829619 0)
(-0.000442694 0.000959329 0)
(-0.000312169 0.000997097 0)
(-0.00018366 0.000917617 0)
(-7.42443e-05 0.00069441 0)
(-6.03144e-06 0.000299213 0)
(5.12801e-06 0.000198815 0)
(5.93389e-05 0.000448169 0)
(0.000143372 0.000573148 0)
(0.000238217 0.000594771 0)
(0.00032902 0.000533187 0)
(0.000404441 0.000407901 0)
(0.000455908 0.000237605 0)
(0.000477647 4.00047e-05 0)
(0.000466506 -0.000168436 0)
(0.000421807 -0.00037275 0)
(0.000345184 -0.000559722 0)
(0.000240314 -0.00071808 0)
(0.000112601 -0.000838656 0)
(-3.11914e-05 -0.000914525 0)
(-0.000183294 -0.000941133 0)
(-0.000335382 -0.000916443 0)
(-0.000479001 -0.000840959 0)
(-0.000606006 -0.000717726 0)
(-0.000709008 -0.000552315 0)
(-0.000781792 -0.000352761 0)
(-0.000819721 -0.000129477 0)
(-0.000820095 0.00010486 0)
(-0.00078248 0.000335454 0)
(-0.000708981 0.000545579 0)
(-0.000604464 0.000716833 0)
(-0.000476738 0.000829403 0)
(-0.000336761 0.000862314 0)
(-0.000198596 0.00079361 0)
(-8.06141e-05 0.000600436 0)
(-6.66472e-06 0.000258572 0)
(5.53429e-06 0.000166579 0)
(6.2953e-05 0.000375924 0)
(0.00015139 0.000481087 0)
(0.000250855 0.000499467 0)
(0.000345878 0.000447932 0)
(0.000424683 0.000342937 0)
(0.00047837 0.000200291 0)
(0.000500962 3.49264e-05 0)
(0.000489238 -0.000139346 0)
(0.000442553 -0.000310027 0)
(0.000362634 -0.00046611 0)
(0.00025332 -0.000598237 0)
(0.000120243 -0.000698825 0)
(-2.9563e-05 -0.000762165 0)
(-0.000188028 -0.000784501 0)
(-0.000346513 -0.000764148 0)
(-0.000496249 -0.000701517 0)
(-0.000628784 -0.000599108 0)
(-0.000736437 -0.000461505 0)
(-0.000812734 -0.000295339 0)
(-0.000852826 -0.000109225 0)
(-0.000853865 8.63111e-05 0)
(-0.000815349 0.000278935 0)
(-0.000739413 0.000454638 0)
(-0.000631066 0.000597951 0)
(-0.000498369 0.000692176 0)
(-0.000352663 0.000719646 0)
(-0.000208511 0.000661975 0)
(-8.50399e-05 0.000500253 0)
(-7.1668e-06 0.000214977 0)
(5.81045e-06 0.000132748 0)
(6.48224e-05 0.00030071 0)
(0.000155133 0.000385642 0)
(0.000256408 0.000400912 0)
(0.000353005 0.000359924 0)
(0.000433063 0.000275958 0)
(0.000487598 0.000161845 0)
(0.000510577 2.96728e-05 0)
(0.000498782 -0.000109452 0)
(0.000451618 -0.000245562 0)
(0.000370873 -0.000369921 0)
(0.000260444 -0.000475133 0)
(0.000126022 -0.00055522 0)
(-2.53002e-05 -0.000605695 0)
(-0.000185396 -0.000623613 0)
(-0.00034557 -0.00060765 0)
(-0.000497001 -0.000558119 0)
(-0.000631177 -0.000476973 0)
(-0.000740354 -0.000367802 0)
(-0.000817987 -0.00023581 0)
(-0.000859149 -8.77867e-05 0)
(-0.000860921 6.79394e-05 0)
(-0.000822742 0.000221552 0)
(-0.000746715 0.000361835 0)
(-0.000637853 0.000476329 0)
(-0.000504264 0.000551527 0)
(-0.000357363 0.000573139 0)
(-0.000211807 0.000526439 0)
(-8.67939e-05 0.000396678 0)
(-7.4571e-06 0.000169533 0)
(5.86443e-06 9.83915e-05 0)
(6.41193e-05 0.000224973 0)
(0.00015286 0.000289885 0)
(0.000252263 0.000302176 0)
(0.000347049 0.0002718 0)
(0.000425641 0.000208892 0)
(0.000479262 0.000123292 0)
(0.000502022 2.42299e-05 0)
(0.000490792 -7.98813e-05 0)
(0.000445039 -0.000181577 0)
(0.000366555 -0.000274379 0)
(0.000259171 -0.000352829 0)
(0.000128437 -0.000412533 0)
(-1.87542e-05 -0.000450202 0)
(-0.000174523 -0.00046368 0)
(-0.000330443 -0.000451993 0)
(-0.000477966 -0.000415362 0)
(-0.000608836 -0.00035521 0)
(-0.000715527 -0.000274154 0)
(-0.000791657 -0.000176006 0)
(-0.000832394 -6.57579e-05 0)
(-0.000834842 5.04293e-05 0)
(-0.000798389 0.000165243 0)
(-0.00072503 0.000270255 0)
(-0.000619619 0.000356012 0)
(-0.000490062 0.000412191 0)
(-0.000347513 0.000427836 0)
(-0.000206241 0.000391801 0)
(-8.48212e-05 0.000293492 0)
(-7.44298e-06 0.000123907 0)
(5.52625e-06 6.51664e-05 0)
(5.96369e-05 0.000152146 0)
(0.000142173 0.000197915 0)
(0.000234884 0.000207288 0)
(0.000323491 0.000187014 0)
(0.000397096 0.000144267 0)
(0.000447463 8.59988e-05 0)
(0.000469112 1.86508e-05 0)
(0.000459167 -5.1982e-05 0)
(0.000417177 -0.000120828 0)
(0.000344858 -0.00018354 0)
(0.0002458 -0.000236488 0)
(0.000125156 -0.000276766 0)
(-1.07087e-05 -0.000302209 0)
(-0.000154543 -0.000311395 0)
(-0.0002986 -0.000303679 0)
(-0.000435019 -0.000279201 0)
(-0.0005562 -0.000238887 0)
(-0.000655198 -0.000184457 0)
(-0.000726093 -0.00011842 0)
(-0.000764372 -4.40829e-05 0)
(-0.000767283 3.44463e-05 0)
(-0.000734179 0.000112245 0)
(-0.000666836 0.000183566 0)
(-0.000569732 0.000241874 0)
(-0.00045025 0.000279922 0)
(-0.000318861 0.000289942 0)
(-0.000188903 0.000264126 0)
(-7.76004e-05 0.000195585 0)
(-6.8832e-06 8.04384e-05 0)
(4.53554e-06 3.54704e-05 0)
(4.97961e-05 8.67886e-05 0)
(0.000120113 0.000114912 0)
(0.00019986 0.000121253 0)
(0.000276498 0.000109867 0)
(0.00034037 8.52419e-05 0)
(0.000384256 5.16551e-05 0)
(0.000403444 1.29478e-05 0)
(0.00039553 -2.75081e-05 0)
(0.000360207 -6.68168e-05 0)
(0.000299008 -0.000102532 0)
(0.000215043 -0.000132632 0)
(0.000112723 -0.000155512 0)
(-2.54325e-06 -0.000169981 0)
(-0.000124622 -0.000175261 0)
(-0.000246969 -0.000170992 0)
(-0.000362946 -0.000157246 0)
(-0.000466124 -0.000134528 0)
(-0.000550604 -0.000103775 0)
(-0.000611332 -6.63691e-05 0)
(-0.000644408 -2.4137e-05 0)
(-0.000647401 2.06313e-05 0)
(-0.000619652 6.5157e-05 0)
(-0.000562577 0.000106139 0)
(-0.000479963 0.00013974 0)
(-0.000378195 0.000161591 0)
(-0.000266451 0.000166885 0)
(-0.000156511 0.000150792 0)
(-6.33734e-05 0.000109266 0)
(-5.45668e-06 4.2366e-05 0)
(2.44256e-06 1.32321e-05 0)
(3.30373e-05 3.56734e-05 0)
(8.36308e-05 4.85656e-05 0)
(0.000142213 5.17533e-05 0)
(0.000198969 4.7262e-05 0)
(0.000246425 3.72532e-05 0)
(0.000279164 2.36646e-05 0)
(0.000293771 8.12904e-06 0)
(0.000288599 -7.99008e-06 0)
(0.000263533 -2.35609e-05 0)
(0.00021977 -3.76461e-05 0)
(0.000159612 -4.94817e-05 0)
(8.62585e-05 -5.84653e-05 0)
(3.60046e-06 -6.41542e-05 0)
(-8.39809e-05 -6.62596e-05 0)
(-0.00017182 -6.46456e-05 0)
(-0.000255182 -5.9335e-05 0)
(-0.000329475 -5.05126e-05 0)
(-0.000390464 -3.8525e-05 0)
(-0.00043449 -2.38851e-05 0)
(-0.000458688 -7.27678e-06 0)
(-0.000461205 1.04343e-05 0)
(-0.000441441 2.81781e-05 0)
(-0.000400291 4.46475e-05 0)
(-0.000340409 5.82652e-05 0)
(-0.000266452 6.71469e-05 0)
(-0.000185301 6.90897e-05 0)
(-0.000106147 6.17699e-05 0)
(-4.06697e-05 4.31393e-05 0)
(-2.70599e-06 1.45861e-05 0)
(-3.13192e-07 1.33822e-06 0)
(1.03647e-05 4.41295e-06 0)
(3.1776e-05 6.00201e-06 0)
(5.7455e-05 6.38478e-06 0)
(8.25203e-05 5.96129e-06 0)
(0.000103485 5.03757e-06 0)
(0.000117981 3.8427e-06 0)
(0.000124611 2.53307e-06 0)
(0.000122768 1.21926e-06 0)
(0.000112491 -1.83512e-08 0)
(9.43509e-05 -1.11781e-06 0)
(6.93551e-05 -2.03049e-06 0)
(3.88599e-05 -2.71881e-06 0)
(4.48929e-06 -3.1562e-06 0)
(-3.19455e-05 -3.32559e-06 0)
(-6.85226e-05 -3.21785e-06 0)
(-0.000103291 -2.83317e-06 0)
(-0.000134352 -2.18193e-06 0)
(-0.000159943 -1.28441e-06 0)
(-0.000178522 -1.71585e-07 0)
(-0.000188851 1.1146e-06 0)
(-0.000190086 2.51975e-06 0)
(-0.000181881 3.97172e-06 0)
(-0.000164503 5.37203e-06 0)
(-0.000138974 6.58577e-06 0)
(-0.000107228 7.423e-06 0)
(-7.22809e-05 7.6153e-06 0)
(-3.84864e-05 6.8279e-06 0)
(-1.16789e-05 4.60975e-06 0)
(7.70561e-07 8.89769e-07 0)
)
;

boundaryField
{
    floor
    {
        type            noSlip;
    }
    ceiling
    {
        type            noSlip;
    }
    fixedWalls
    {
        type            noSlip;
    }
    frontAndBack
    {
        type            empty;
    }
}


// ************************************************************************* //
