/*--------------------------------*- C++ -*----------------------------------*\
| =========                 |                                                 |
| \\      /  F ield         | OpenFOAM: The Open Source CFD Toolbox           |
|  \\    /   O peration     | Version:  2412                                  |
|   \\  /    A nd           | Website:  www.openfoam.com                      |
|    \\/     M anipulation  |                                                 |
\*---------------------------------------------------------------------------*/
FoamFile
{
    version     2.0;
    format      ascii;
    arch        "LSB;label=32;scalar=64";
    class       volScalarField;
    location    "500";
    object      p;
}
// * * * * * * * * * * * * * * * * * * * * * * * * * * * * * * * * * * * * * //

dimensions      [0 2 -2 0 0 0 0];

internalField   nonuniform List<scalar> 
900
(
0
-1.05211e-05
-1.26618e-05
-3.84662e-06
1.60772e-05
4.56672e-05
8.25554e-05
0.000123977
0.000167036
0.000208882
0.000246849
0.000278577
0.0003021
0.00031592
0.000319069
0.000311125
0.000292229
0.000263109
0.000225041
0.000179816
0.000129678
7.7245e-05
2.54066e-05
-2.2805e-05
-6.43521e-05
-9.64072e-05
-0.00011667
-0.000123994
-0.000119144
-0.000106242
-0.00162317
-0.0016342
-0.00163613
-0.00162794
-0.00161044
-0.00158491
-0.00155332
-0.00151796
-0.00148126
-0.00144565
-0.00141339
-0.00138651
-0.00136673
-0.00135533
-0.00135315
-0.00136055
-0.0013774
-0.00140306
-0.00143641
-0.00147587
-0.00151951
-0.00156506
-0.00161005
-0.00165192
-0.00168812
-0.00171634
-0.00173465
-0.00174202
-0.00173802
-0.00172426
-0.00488153
-0.00489529
-0.0048988
-0.00489227
-0.00487741
-0.00485553
-0.00482844
-0.00479812
-0.00476666
-0.00473615
-0.00470856
-0.00468565
-0.0046689
-0.00465945
-0.00465801
-0.0046649
-0.00467999
-0.00470272
-0.0047321
-0.00476674
-0.00480496
-0.00484476
-0.00488403
-0.00492054
-0.00495209
-0.00497667
-0.00499252
-0.00499845
-0.00499286
-0.00497576
-0.00976692
-0.00978323
-0.00978875
-0.00978423
-0.00977196
-0.00975332
-0.00973002
-0.00970386
-0.00967671
-0.00965038
-0.00962661
-0.00960694
-0.00959266
-0.00958476
-0.00958387
-0.00959025
-0.00960381
-0.00962403
-0.00965004
-0.00968062
-0.00971428
-0.00974927
-0.00978373
-0.00981569
-0.00984322
-0.00986444
-0.00987764
-0.00988147
-0.00987358
-0.00985317
-0.0162621
-0.0162798
-0.0162868
-0.0162841
-0.0162743
-0.0162585
-0.0162386
-0.0162162
-0.0161928
-0.0161701
-0.0161497
-0.0161329
-0.0161207
-0.0161141
-0.0161137
-0.0161195
-0.0161317
-0.0161496
-0.0161726
-0.0161995
-0.0162291
-0.0162597
-0.0162899
-0.0163177
-0.0163415
-0.0163596
-0.0163703
-0.0163721
-0.0163624
-0.01634
-0.0243426
-0.0243606
-0.0243685
-0.0243673
-0.0243595
-0.0243464
-0.0243295
-0.0243103
-0.0242903
-0.024271
-0.0242535
-0.0242391
-0.0242288
-0.0242234
-0.0242233
-0.0242286
-0.0242394
-0.0242552
-0.0242754
-0.024299
-0.0243248
-0.0243515
-0.0243777
-0.0244018
-0.0244222
-0.0244374
-0.0244458
-0.0244459
-0.0244351
-0.0244122
-0.033978
-0.0339952
-0.0340033
-0.0340032
-0.0339971
-0.0339864
-0.0339722
-0.0339561
-0.0339392
-0.0339227
-0.033908
-0.0338958
-0.0338872
-0.0338828
-0.0338829
-0.0338878
-0.0338972
-0.0339111
-0.0339286
-0.033949
-0.0339713
-0.0339943
-0.0340168
-0.0340374
-0.0340548
-0.0340674
-0.0340738
-0.0340727
-0.0340617
-0.0340394
-0.0451323
-0.0451481
-0.0451558
-0.0451563
-0.0451517
-0.045143
-0.0451314
-0.045118
-0.0451039
-0.0450902
-0.0450779
-0.0450679
-0.0450608
-0.0450572
-0.0450575
-0.0450618
-0.0450701
-0.0450819
-0.0450969
-0.0451144
-0.0451333
-0.0451529
-0.0451719
-0.0451893
-0.0452037
-0.045214
-0.0452188
-0.045217
-0.0452063
-0.0451856
-0.0577648
-0.0577785
-0.0577855
-0.0577864
-0.057783
-0.0577761
-0.0577667
-0.0577558
-0.0577444
-0.0577333
-0.0577233
-0.0577152
-0.0577095
-0.0577068
-0.0577072
-0.0577109
-0.0577179
-0.0577279
-0.0577405
-0.057755
-0.0577708
-0.057787
-0.0578028
-0.057817
-0.0578288
-0.057837
-0.0578405
-0.0578384
-0.0578286
-0.0578103
-0.0718305
-0.0718418
-0.0718478
-0.0718488
-0.0718464
-0.0718411
-0.0718338
-0.0718253
-0.0718163
-0.0718076
-0.0717998
-0.0717935
-0.0717891
-0.0717871
-0.0717876
-0.0717908
-0.0717966
-0.0718047
-0.0718149
-0.0718266
-0.0718394
-0.0718524
-0.071865
-0.0718764
-0.0718857
-0.071892
-0.0718945
-0.0718923
-0.0718839
-0.0718684
-0.0872809
-0.0872898
-0.0872945
-0.0872955
-0.0872938
-0.0872899
-0.0872846
-0.0872783
-0.0872716
-0.0872652
-0.0872594
-0.0872548
-0.0872517
-0.0872503
-0.0872509
-0.0872535
-0.087258
-0.0872644
-0.0872723
-0.0872813
-0.0872911
-0.087301
-0.0873106
-0.0873193
-0.0873262
-0.0873309
-0.0873326
-0.0873306
-0.0873237
-0.0873115
-0.104065
-0.104071
-0.104074
-0.104075
-0.104074
-0.104071
-0.104068
-0.104064
-0.104059
-0.104055
-0.104051
-0.104048
-0.104046
-0.104045
-0.104046
-0.104048
-0.104051
-0.104056
-0.104061
-0.104068
-0.104075
-0.104082
-0.104089
-0.104095
-0.104099
-0.104103
-0.104104
-0.104102
-0.104097
-0.104088
-0.122128
-0.122131
-0.122133
-0.122134
-0.122133
-0.122132
-0.12213
-0.122128
-0.122125
-0.122123
-0.122121
-0.122119
-0.122119
-0.122118
-0.122119
-0.12212
-0.122122
-0.122125
-0.122129
-0.122133
-0.122137
-0.122141
-0.122145
-0.122149
-0.122151
-0.122153
-0.122154
-0.122153
-0.12215
-0.122144
-0.141415
-0.141416
-0.141416
-0.141416
-0.141416
-0.141416
-0.141416
-0.141415
-0.141415
-0.141414
-0.141414
-0.141414
-0.141414
-0.141414
-0.141414
-0.141415
-0.141416
-0.141418
-0.141419
-0.141421
-0.141422
-0.141424
-0.141425
-0.141426
-0.141427
-0.141428
-0.141428
-0.141427
-0.141426
-0.141424
-0.161868
-0.161867
-0.161866
-0.161866
-0.161866
-0.161867
-0.161868
-0.161869
-0.161871
-0.161872
-0.161873
-0.161874
-0.161875
-0.161876
-0.161876
-0.161876
-0.161876
-0.161876
-0.161875
-0.161875
-0.161874
-0.161873
-0.161872
-0.161871
-0.16187
-0.161869
-0.161869
-0.161869
-0.161869
-0.161871
-0.183431
-0.183428
-0.183426
-0.183425
-0.183426
-0.183428
-0.18343
-0.183433
-0.183436
-0.183439
-0.183441
-0.183443
-0.183445
-0.183446
-0.183446
-0.183446
-0.183445
-0.183443
-0.183441
-0.183438
-0.183435
-0.183431
-0.183428
-0.183425
-0.183422
-0.18342
-0.18342
-0.18342
-0.183423
-0.183427
-0.206047
-0.206041
-0.206038
-0.206037
-0.206038
-0.206041
-0.206044
-0.206048
-0.206053
-0.206057
-0.206061
-0.206065
-0.206067
-0.206068
-0.206069
-0.206068
-0.206066
-0.206062
-0.206058
-0.206053
-0.206048
-0.206042
-0.206036
-0.206031
-0.206027
-0.206024
-0.206023
-0.206025
-0.206029
-0.206036
-0.229658
-0.22965
-0.229646
-0.229645
-0.229646
-0.22965
-0.229655
-0.22966
-0.229666
-0.229672
-0.229677
-0.229681
-0.229684
-0.229686
-0.229686
-0.229685
-0.229682
-0.229677
-0.229671
-0.229664
-0.229656
-0.229649
-0.229641
-0.229634
-0.229628
-0.229624
-0.229623
-0.229625
-0.22963
-0.229641
-0.25421
-0.2542
-0.254195
-0.254194
-0.254196
-0.2542
-0.254206
-0.254213
-0.25422
-0.254227
-0.254233
-0.254239
-0.254242
-0.254244
-0.254244
-0.254242
-0.254238
-0.254232
-0.254225
-0.254216
-0.254206
-0.254196
-0.254186
-0.254178
-0.254171
-0.254166
-0.254164
-0.254166
-0.254173
-0.254186
-0.279649
-0.279637
-0.279631
-0.27963
-0.279632
-0.279637
-0.279644
-0.279653
-0.279661
-0.27967
-0.279677
-0.279683
-0.279687
-0.27969
-0.279689
-0.279687
-0.279682
-0.279675
-0.279666
-0.279655
-0.279643
-0.279632
-0.27962
-0.279609
-0.279601
-0.279595
-0.279593
-0.279595
-0.279603
-0.279618
-0.305924
-0.305911
-0.305904
-0.305903
-0.305906
-0.305912
-0.30592
-0.30593
-0.305939
-0.305949
-0.305958
-0.305964
-0.305969
-0.305972
-0.305971
-0.305968
-0.305963
-0.305954
-0.305944
-0.305931
-0.305918
-0.305904
-0.30589
-0.305878
-0.305868
-0.305861
-0.305858
-0.305861
-0.30587
-0.305887
-0.332987
-0.332973
-0.332966
-0.332965
-0.332968
-0.332975
-0.332985
-0.332995
-0.333007
-0.333017
-0.333027
-0.333035
-0.33304
-0.333043
-0.333043
-0.333039
-0.333032
-0.333023
-0.333011
-0.332997
-0.332982
-0.332966
-0.33295
-0.332936
-0.332924
-0.332916
-0.332913
-0.332915
-0.332925
-0.332943
-0.360793
-0.360779
-0.360772
-0.360771
-0.360775
-0.360783
-0.360794
-0.360806
-0.360819
-0.360831
-0.360842
-0.36085
-0.360856
-0.360859
-0.360859
-0.360855
-0.360847
-0.360837
-0.360823
-0.360807
-0.36079
-0.360772
-0.360755
-0.360739
-0.360725
-0.360716
-0.360711
-0.360713
-0.360723
-0.360743
-0.389303
-0.389287
-0.38928
-0.38928
-0.389286
-0.389295
-0.389307
-0.389321
-0.389335
-0.389348
-0.38936
-0.38937
-0.389377
-0.38938
-0.38938
-0.389375
-0.389367
-0.389355
-0.38934
-0.389322
-0.389303
-0.389283
-0.389264
-0.389246
-0.38923
-0.389219
-0.389214
-0.389215
-0.389225
-0.389245
-0.418477
-0.418462
-0.418456
-0.418457
-0.418463
-0.418474
-0.418487
-0.418503
-0.418519
-0.418534
-0.418548
-0.418559
-0.418566
-0.41857
-0.41857
-0.418565
-0.418555
-0.418542
-0.418526
-0.418506
-0.418485
-0.418462
-0.418441
-0.41842
-0.418403
-0.41839
-0.418383
-0.418383
-0.418392
-0.418412
-0.448286
-0.448272
-0.448266
-0.448268
-0.448276
-0.448288
-0.448304
-0.448321
-0.448339
-0.448356
-0.448372
-0.448384
-0.448393
-0.448397
-0.448397
-0.448391
-0.448381
-0.448367
-0.448348
-0.448327
-0.448303
-0.448278
-0.448253
-0.448231
-0.448211
-0.448196
-0.448188
-0.448186
-0.448194
-0.448213
-0.478701
-0.478688
-0.478684
-0.478687
-0.478697
-0.478711
-0.478729
-0.478749
-0.478769
-0.478789
-0.478806
-0.47882
-0.47883
-0.478835
-0.478835
-0.478829
-0.478818
-0.478802
-0.478781
-0.478757
-0.478731
-0.478703
-0.478676
-0.47865
-0.478628
-0.478611
-0.4786
-0.478597
-0.478603
-0.47862
-0.509701
-0.50969
-0.509687
-0.509692
-0.509704
-0.50972
-0.509741
-0.509763
-0.509787
-0.509809
-0.509829
-0.509845
-0.509857
-0.509863
-0.509863
-0.509857
-0.509845
-0.509827
-0.509804
-0.509777
-0.509747
-0.509716
-0.509685
-0.509656
-0.509631
-0.509612
-0.509599
-0.509594
-0.509598
-0.509612
-0.54127
-0.541261
-0.54126
-0.541266
-0.541279
-0.541298
-0.541322
-0.541348
-0.541375
-0.541401
-0.541425
-0.541444
-0.541457
-0.541465
-0.541465
-0.541459
-0.541445
-0.541425
-0.541399
-0.541369
-0.541335
-0.5413
-0.541265
-0.541232
-0.541203
-0.541181
-0.541166
-0.54116
-0.541163
-0.541174
-0.573403
-0.573395
-0.573393
-0.5734
-0.573415
-0.573437
-0.573465
-0.573496
-0.573527
-0.573558
-0.573585
-0.573608
-0.573624
-0.573633
-0.573634
-0.573627
-0.573612
-0.57359
-0.57356
-0.573526
-0.573487
-0.573447
-0.573406
-0.573369
-0.573336
-0.57331
-0.573294
-0.573288
-0.573292
-0.573303
)
;

boundaryField
{
    floor
    {
        type            calculated;
        value           nonuniform List<scalar> 
30
(
0.000408804
0.000398715
0.00039696
0.000406152
0.000426447
0.000456403
0.000493647
0.000535412
0.000578797
0.00062094
0.000659167
0.000691108
0.000714791
0.00072871
0.000731893
0.000723917
0.000704925
0.000675645
0.000637359
0.000591865
0.000541417
0.000488642
0.000436441
0.000387852
0.000345918
0.000313473
0.00029282
0.000285107
0.00028957
0.000302088
)
;
    }
    ceiling
    {
        type            calculated;
        value           nonuniform List<scalar> 
30
(
-0.589622
-0.589614
-0.589613
-0.589619
-0.589635
-0.589658
-0.589686
-0.589717
-0.589749
-0.589779
-0.589807
-0.589829
-0.589846
-0.589855
-0.589856
-0.589849
-0.589834
-0.589811
-0.589782
-0.589747
-0.589708
-0.589668
-0.589627
-0.589589
-0.589556
-0.58953
-0.589513
-0.589507
-0.589511
-0.589521
)
;
    }
    fixedWalls
    {
        type            calculated;
        value           nonuniform List<scalar> 
60
(
0
-0.00162317
-0.00488153
-0.00976692
-0.0162621
-0.0243426
-0.033978
-0.0451323
-0.0577648
-0.0718305
-0.0872809
-0.104065
-0.122128
-0.141415
-0.161868
-0.183431
-0.206047
-0.229658
-0.25421
-0.279649
-0.305924
-0.332987
-0.360793
-0.389303
-0.418477
-0.448286
-0.478701
-0.509701
-0.54127
-0.573403
-0.000106242
-0.00172426
-0.00497576
-0.00985317
-0.01634
-0.0244122
-0.0340394
-0.0451856
-0.0578103
-0.0718684
-0.0873115
-0.104088
-0.122144
-0.141424
-0.161871
-0.183427
-0.206036
-0.229641
-0.254186
-0.279618
-0.305887
-0.332943
-0.360743
-0.389245
-0.418412
-0.448213
-0.47862
-0.509612
-0.541174
-0.573303
)
;
    }
    frontAndBack
    {
        type            empty;
    }
}


// ************************************************************************* //
