/*--------------------------------*- C++ -*----------------------------------*\
| =========                 |                                                 |
| \\      /  F ield         | OpenFOAM: The Open Source CFD Toolbox           |
|  \\    /   O peration     | Version:  2412                                  |
|   \\  /    A nd           | Website:  www.openfoam.com                      |
|    \\/     M anipulation  |                                                 |
\*---------------------------------------------------------------------------*/
FoamFile
{
    version     2.0;
    format      ascii;
    arch        "LSB;label=32;scalar=64";
    class       volScalarField;
    location    "500";
    object      p_rgh;
}
// * * * * * * * * * * * * * * * * * * * * * * * * * * * * * * * * * * * * * //

dimensions      [0 2 -2 0 0 0 0];

internalField   nonuniform List<scalar> 
900
(
0.000408804
0.000398715
0.00039696
0.000406152
0.000426447
0.000456403
0.000493647
0.000535412
0.000578797
0.00062094
0.000659167
0.000691108
0.000714791
0.00072871
0.000731893
0.000723917
0.000704925
0.000675645
0.000637359
0.000591865
0.000541417
0.000488642
0.000436441
0.000387852
0.000345918
0.000313473
0.00029282
0.000285107
0.00028957
0.000302088
0.00205029
0.00204303
0.00204453
0.00205608
0.0020769
0.00210572
0.00214051
0.00217896
0.00221858
0.00225687
0.00229147
0.00232027
0.00234149
0.00235377
0.00235626
0.00234858
0.00233085
0.00230375
0.00226845
0.00222657
0.00218014
0.00213151
0.00208325
0.00203799
0.0019983
0.00196658
0.00194476
0.00193391
0.00193445
0.00194475
0.00529614
0.00529251
0.00529835
0.00531412
0.00533814
0.00536908
0.00540507
0.00544396
0.00548353
0.00552147
0.00555554
0.00558377
0.00560449
0.0056164
0.0056187
0.00561103
0.00559351
0.00556679
0.00553197
0.00549062
0.00544466
0.00539631
0.00534797
0.00530202
0.00526081
0.00522653
0.00520102
0.00518549
0.00518152
0.00518899
0.0101052
0.0101081
0.0101206
0.0101429
0.0101729
0.0102092
0.0102498
0.0102926
0.0103356
0.0103764
0.0104128
0.0104428
0.0104648
0.0104775
0.0104801
0.0104722
0.0104539
0.0104259
0.0103893
0.0103456
0.0102969
0.0102452
0.010193
0.0101426
0.0100963
0.0100562
0.0100242
0.0100018
0.00999118
0.00999286
0.0164218
0.0164351
0.0164571
0.0164886
0.0165273
0.0165717
0.0166199
0.0166697
0.0167189
0.0167652
0.0168062
0.01684
0.0168648
0.0168792
0.0168823
0.0168739
0.0168541
0.0168234
0.0167831
0.0167348
0.0166806
0.0166226
0.0165634
0.0165054
0.0164508
0.0164019
0.0163607
0.0163286
0.0163083
0.0163002
0.0241759
0.0242029
0.0242371
0.0242803
0.0243303
0.0243854
0.0244438
0.024503
0.0245609
0.024615
0.0246627
0.0247018
0.0247305
0.0247474
0.0247515
0.0247424
0.0247203
0.0246858
0.0246402
0.0245853
0.0245232
0.0244564
0.0243875
0.024319
0.0242533
0.0241929
0.0241397
0.0240954
0.0240622
0.0240406
0.0332831
0.0333266
0.0333756
0.0334327
0.0334961
0.0335641
0.0336347
0.0337056
0.0337741
0.0338377
0.0338935
0.0339393
0.033973
0.033993
0.0339982
0.0339883
0.0339633
0.0339241
0.0338719
0.0338088
0.033737
0.0336592
0.0335784
0.0334971
0.0334181
0.0333438
0.0332763
0.0332172
0.0331686
0.0331302
0.0436467
0.043709
0.0437747
0.0438475
0.0439259
0.0440085
0.044093
0.0441769
0.0442575
0.0443319
0.0443971
0.0444504
0.0444897
0.0445131
0.0445197
0.0445088
0.0444806
0.0444359
0.0443763
0.0443038
0.044221
0.0441309
0.0440364
0.0439406
0.0438464
0.0437564
0.0436728
0.0435969
0.0435305
0.0434728
0.0551594
0.0552421
0.0553258
0.0554155
0.0555102
0.0556084
0.0557078
0.0558058
0.0558993
0.0559852
0.0560603
0.0561217
0.056167
0.0561942
0.0562021
0.0561901
0.0561585
0.056108
0.0560405
0.055958
0.0558634
0.0557598
0.0556507
0.0555393
0.0554287
0.0553217
0.0552205
0.0551264
0.0550406
0.0549618
0.0677052
0.0678091
0.0679116
0.068019
0.0681306
0.0682449
0.0683597
0.0684721
0.0685789
0.0686765
0.0687617
0.0688313
0.0688826
0.0689135
0.0689228
0.0689098
0.0688747
0.0688184
0.0687427
0.06865
0.0685433
0.0684261
0.068302
0.0681745
0.0680469
0.0679222
0.0678027
0.0676895
0.0675833
0.0674821
0.0811618
0.0812874
0.0814089
0.0815341
0.0816625
0.0817929
0.081923
0.0820496
0.0821693
0.0822785
0.0823735
0.082451
0.0825081
0.0825427
0.0825533
0.0825393
0.0825007
0.0824387
0.0823552
0.0822526
0.0821341
0.0820035
0.0818646
0.0817211
0.0815766
0.0814342
0.0812962
0.0811636
0.0810366
0.0809124
0.0954036
0.0955503
0.0956906
0.0958331
0.0959779
0.0961238
0.0962684
0.0964084
0.0965404
0.0966603
0.0967644
0.0968492
0.0969118
0.0969497
0.0969615
0.0969465
0.0969049
0.0968377
0.0967468
0.096635
0.0965056
0.0963624
0.0962094
0.0960507
0.09589
0.0957305
0.0955744
0.0954227
0.0952749
0.095128
0.110303
0.11047
0.110629
0.110787
0.110948
0.111108
0.111266
0.111418
0.111561
0.11169
0.111803
0.111894
0.111961
0.112002
0.112015
0.111999
0.111955
0.111883
0.111786
0.111666
0.111527
0.111372
0.111206
0.111034
0.110858
0.110683
0.110509
0.110339
0.110172
0.110003
0.125736
0.125922
0.126096
0.12627
0.126444
0.126617
0.126787
0.126949
0.127102
0.127239
0.127358
0.127455
0.127526
0.127569
0.127583
0.127566
0.12752
0.127444
0.127342
0.127215
0.127068
0.126904
0.126727
0.126543
0.126354
0.126164
0.125975
0.125788
0.125602
0.125412
0.141579
0.141782
0.141971
0.142158
0.142344
0.142528
0.142707
0.142878
0.143038
0.143182
0.143306
0.143406
0.14348
0.143525
0.14354
0.143523
0.143475
0.143396
0.14329
0.143158
0.143005
0.142833
0.142648
0.142454
0.142254
0.142052
0.141849
0.141648
0.141445
0.141236
0.157719
0.157936
0.158138
0.158336
0.158531
0.158723
0.158909
0.159087
0.159252
0.1594
0.159527
0.15963
0.159706
0.159752
0.159767
0.15975
0.159701
0.159621
0.159512
0.159378
0.15922
0.159043
0.158852
0.15865
0.158442
0.15823
0.158017
0.157802
0.157585
0.15736
0.174049
0.174278
0.174489
0.174695
0.174897
0.175095
0.175286
0.175467
0.175635
0.175785
0.175914
0.176018
0.176094
0.176141
0.176156
0.176139
0.17609
0.17601
0.1759
0.175764
0.175605
0.175426
0.175231
0.175025
0.174811
0.174592
0.17437
0.174146
0.173917
0.173679
0.190474
0.190712
0.19093
0.191141
0.191348
0.191548
0.191741
0.191923
0.192091
0.192241
0.192369
0.192473
0.192549
0.192595
0.19261
0.192593
0.192545
0.192465
0.192357
0.192222
0.192063
0.191884
0.191689
0.191481
0.191265
0.191042
0.190816
0.190585
0.190347
0.190098
0.206914
0.207156
0.207378
0.207592
0.207799
0.208
0.208191
0.208372
0.208537
0.208684
0.20881
0.208911
0.208986
0.209031
0.209046
0.20903
0.208983
0.208906
0.2088
0.208668
0.208512
0.208336
0.208143
0.207938
0.207722
0.207499
0.20727
0.207036
0.206793
0.206538
0.223302
0.223545
0.223767
0.22398
0.224185
0.224382
0.22457
0.224745
0.224906
0.225048
0.225169
0.225267
0.225339
0.225382
0.225397
0.225382
0.225337
0.225263
0.225161
0.225034
0.224884
0.224714
0.224527
0.224326
0.224114
0.223895
0.223668
0.223434
0.22319
0.222931
0.239588
0.239829
0.240047
0.240255
0.240455
0.240645
0.240826
0.240994
0.241147
0.241282
0.241397
0.24149
0.241557
0.241599
0.241612
0.241598
0.241556
0.241487
0.241391
0.241271
0.241129
0.240967
0.240789
0.240596
0.240392
0.240179
0.239958
0.239728
0.239487
0.23923
0.255742
0.255975
0.256186
0.256386
0.256576
0.256757
0.256927
0.257085
0.257228
0.257354
0.257461
0.257547
0.25761
0.257648
0.257661
0.257648
0.25761
0.257546
0.257458
0.257347
0.257215
0.257065
0.256898
0.256717
0.256524
0.256321
0.256109
0.255887
0.255653
0.255402
0.27175
0.271972
0.272172
0.27236
0.272538
0.272705
0.272863
0.273007
0.273138
0.273253
0.27335
0.273427
0.273484
0.273519
0.273531
0.27352
0.273485
0.273428
0.273349
0.273249
0.27313
0.272993
0.272841
0.272675
0.272496
0.272308
0.272109
0.271899
0.271676
0.271435
0.28762
0.287827
0.288012
0.288184
0.288346
0.288498
0.288639
0.288768
0.288884
0.288985
0.289071
0.289139
0.289189
0.289219
0.28923
0.289221
0.289191
0.289142
0.289073
0.288986
0.288881
0.288761
0.288626
0.288477
0.288317
0.288146
0.287965
0.287771
0.287564
0.287339
0.303382
0.303569
0.303734
0.303887
0.30403
0.304163
0.304285
0.304396
0.304495
0.304581
0.304653
0.30471
0.304752
0.304778
0.304788
0.30478
0.304756
0.304715
0.304658
0.304586
0.304498
0.304396
0.304281
0.304154
0.304015
0.303865
0.303705
0.303532
0.303345
0.30314
0.319084
0.319246
0.319388
0.319519
0.319639
0.319749
0.31985
0.31994
0.32002
0.320089
0.320146
0.320191
0.320225
0.320245
0.320253
0.320248
0.32023
0.320199
0.320155
0.320098
0.32003
0.319949
0.319856
0.319753
0.319639
0.319514
0.319378
0.31923
0.319068
0.318888
0.334796
0.334929
0.335044
0.335149
0.335243
0.335328
0.335405
0.335472
0.33553
0.33558
0.335621
0.335653
0.335677
0.335692
0.335698
0.335695
0.335683
0.335663
0.335633
0.335595
0.335547
0.335489
0.335422
0.335345
0.335259
0.335163
0.335055
0.334936
0.334803
0.334654
0.350608
0.350707
0.350793
0.350868
0.350934
0.350991
0.351041
0.351082
0.351117
0.351146
0.351169
0.351187
0.3512
0.351209
0.351213
0.351213
0.351208
0.351199
0.351185
0.351166
0.35114
0.351109
0.35107
0.351023
0.350967
0.350902
0.350827
0.35074
0.35064
0.350526
0.36663
0.366692
0.366746
0.36679
0.366824
0.366851
0.366871
0.366884
0.366893
0.366899
0.366902
0.366905
0.366906
0.366908
0.36691
0.366913
0.366916
0.366919
0.366922
0.366924
0.366923
0.36692
0.366911
0.366897
0.366875
0.366845
0.366805
0.366753
0.36669
0.366615
0.382984
0.383011
0.38303
0.383041
0.383042
0.383036
0.383023
0.383006
0.382987
0.382967
0.382949
0.382934
0.382923
0.382917
0.382917
0.382922
0.382934
0.38295
0.382972
0.382997
0.383024
0.383051
0.383076
0.383097
0.383113
0.38312
0.383117
0.383103
0.383078
0.383045
)
;

boundaryField
{
    floor
    {
        type            fixedFluxPressure;
        gradient        uniform 0;
        value           nonuniform List<scalar> 
30
(
0.000408804
0.000398715
0.00039696
0.000406152
0.000426447
0.000456403
0.000493647
0.000535412
0.000578797
0.00062094
0.000659167
0.000691108
0.000714791
0.00072871
0.000731893
0.000723917
0.000704925
0.000675645
0.000637359
0.000591865
0.000541417
0.000488642
0.000436441
0.000387852
0.000345918
0.000313473
0.00029282
0.000285107
0.00028957
0.000302088
)
;
    }
    ceiling
    {
        type            fixedFluxPressure;
        gradient        nonuniform List<scalar> 
30
(
5.04164
5.03055
5.01969
5.00915
4.999
4.98931
4.9802
4.97177
4.96419
4.95757
4.952
4.94757
4.94438
4.94249
4.94193
4.94274
4.94491
4.94842
4.95321
4.95922
4.96637
4.97457
4.98371
4.99364
5.00423
5.01538
5.02704
5.0392
5.05199
5.06587
)
;
        value           nonuniform List<scalar> 
30
(
0.391378
0.391386
0.391387
0.391381
0.391365
0.391342
0.391314
0.391283
0.391251
0.391221
0.391193
0.391171
0.391154
0.391145
0.391144
0.391151
0.391166
0.391189
0.391218
0.391253
0.391292
0.391332
0.391373
0.391411
0.391444
0.39147
0.391487
0.391493
0.391489
0.391479
)
;
    }
    fixedWalls
    {
        type            fixedFluxPressure;
        gradient        uniform 0;
        value           nonuniform List<scalar> 
60
(
0.000408804
0.00205029
0.00529614
0.0101052
0.0164218
0.0241759
0.0332831
0.0436467
0.0551594
0.0677052
0.0811618
0.0954036
0.110303
0.125736
0.141579
0.157719
0.174049
0.190474
0.206914
0.223302
0.239588
0.255742
0.27175
0.28762
0.303382
0.319084
0.334796
0.350608
0.36663
0.382984
0.000302088
0.00194475
0.00518899
0.00999286
0.0163002
0.0240406
0.0331302
0.0434728
0.0549618
0.0674821
0.0809124
0.095128
0.110003
0.125412
0.141236
0.15736
0.173679
0.190098
0.206538
0.222931
0.23923
0.255402
0.271435
0.287339
0.30314
0.318888
0.334654
0.350526
0.366615
0.383045
)
;
    }
    frontAndBack
    {
        type            empty;
    }
}


// ************************************************************************* //
