/*--------------------------------*- C++ -*----------------------------------*\
| =========                 |                                                 |
| \\      /  F ield         | OpenFOAM: The Open Source CFD Toolbox           |
|  \\    /   O peration     | Version:  2412                                  |
|   \\  /    A nd           | Website:  www.openfoam.com                      |
|    \\/     M anipulation  |                                                 |
\*---------------------------------------------------------------------------*/
FoamFile
{
    version     2.0;
    format      ascii;
    arch        "LSB;label=32;scalar=64";
    class       surfaceScalarField;
    location    "500";
    object      phi;
}
// * * * * * * * * * * * * * * * * * * * * * * * * * * * * * * * * * * * * * //

dimensions      [0 3 -1 0 0 0 0];

oriented        oriented;

internalField   nonuniform List<scalar> 
1740
(
-2.62459e-09
2.79463e-09
-1.14633e-08
8.84051e-09
-2.39579e-08
1.24965e-08
-3.74156e-08
1.34604e-08
-4.97343e-08
1.2321e-08
-5.94182e-08
9.68546e-09
-6.55021e-08
6.08441e-09
-6.74543e-08
1.95157e-09
-6.5098e-08
-2.3579e-09
-5.85537e-08
-6.54685e-09
-4.81927e-08
-1.03643e-08
-3.45934e-08
-1.36031e-08
-1.84994e-08
-1.6098e-08
-7.77736e-10
-1.77258e-08
1.76258e-08
-1.84076e-08
3.57265e-08
-1.81047e-08
5.25435e-08
-1.68206e-08
6.71451e-08
-1.46049e-08
7.86932e-08
-1.15509e-08
8.64867e-08
-7.79587e-09
9.00063e-08
-3.52151e-09
8.89594e-08
1.04572e-09
8.33251e-08
5.63374e-09
7.34065e-08
9.91896e-09
5.99007e-08
1.3507e-08
4.39886e-08
1.59142e-08
2.74392e-08
1.65526e-08
1.26774e-08
1.47666e-08
2.70865e-09
9.97492e-09
2.71554e-09
-9.28645e-09
1.20827e-08
-3.12002e-08
3.07641e-08
-6.0054e-08
4.13586e-08
-9.05659e-08
4.39801e-08
-1.18395e-07
4.0156e-08
-1.40267e-07
3.15609e-08
-1.53937e-07
1.97551e-08
-1.58087e-07
6.10059e-09
-1.52215e-07
-8.232e-09
-1.36532e-07
-2.22342e-08
-1.11858e-07
-3.50425e-08
-7.953e-08
-4.5937e-08
-4.12922e-08
-5.43415e-08
8.01271e-10
-5.98249e-08
4.44944e-08
-6.2106e-08
8.74352e-08
-6.10502e-08
1.27286e-07
-5.6675e-08
1.61832e-07
-4.91545e-08
1.89096e-07
-3.88164e-08
2.07441e-07
-2.6142e-08
2.15686e-07
-1.17654e-08
2.13206e-07
3.52759e-09
2.00043e-07
1.88004e-08
1.77012e-07
3.29566e-08
1.45819e-07
4.47076e-08
1.09191e-07
5.25528e-08
7.09676e-08
5.47884e-08
3.61081e-08
4.96387e-08
1.04679e-08
3.56276e-08
1.31889e-08
-1.39471e-08
2.60319e-08
-4.47348e-08
6.15589e-08
-8.40413e-08
8.06714e-08
-1.25074e-07
8.50177e-08
-1.62299e-07
7.73842e-08
-1.91465e-07
6.07279e-08
-2.09575e-07
3.78649e-08
-2.14818e-07
1.13407e-08
-2.06463e-07
-1.65919e-08
-1.84747e-07
-4.39554e-08
-1.50757e-07
-6.9039e-08
-1.06295e-07
-9.04065e-08
-5.37404e-08
-1.06903e-07
4.08977e-09
-1.17662e-07
6.40914e-08
-1.22114e-07
1.23025e-07
-1.19989e-07
1.77673e-07
-1.11328e-07
2.24995e-07
-9.64811e-08
2.62285e-07
-7.61091e-08
2.87321e-07
-5.11791e-08
2.98517e-07
-2.29611e-08
2.95068e-07
6.97762e-09
2.77089e-07
3.67819e-08
2.45744e-07
6.43054e-08
2.03374e-07
8.7083e-08
1.53604e-07
1.02331e-07
1.01405e-07
1.06997e-07
5.30941e-08
9.79602e-08
1.62608e-08
7.24714e-08
2.94531e-08
-1.64016e-08
4.24379e-08
-5.21638e-08
9.733e-08
-9.73536e-08
1.25869e-07
-1.44208e-07
1.31877e-07
-1.86531e-07
1.19712e-07
-2.19572e-07
9.37706e-08
-2.39951e-07
5.82442e-08
-2.45597e-07
1.69843e-08
-2.35652e-07
-2.65401e-08
-2.10366e-07
-6.92456e-08
-1.70967e-07
-1.08444e-07
-1.19514e-07
-1.41865e-07
-5.87455e-08
-1.67677e-07
8.08957e-09
-1.84503e-07
7.74012e-08
-1.91431e-07
1.45441e-07
-1.88033e-07
2.08487e-07
-1.74378e-07
2.6303e-07
-1.51026e-07
3.05949e-07
-1.19029e-07
3.34696e-07
-7.9925e-08
3.47464e-07
-3.57274e-08
3.43356e-07
1.10887e-08
3.22534e-07
5.76085e-08
2.86356e-07
1.00489e-07
2.37497e-07
1.35949e-07
1.80041e-07
1.59793e-07
1.19551e-07
1.67494e-07
6.3131e-08
1.54388e-07
1.95608e-08
1.16049e-07
4.90147e-08
-1.71769e-08
5.9619e-08
-5.4744e-08
1.34904e-07
-1.02153e-07
1.73283e-07
-1.51189e-07
1.80918e-07
-1.95376e-07
1.63901e-07
-2.29772e-07
1.28166e-07
-2.50859e-07
7.933e-08
-2.56472e-07
2.2594e-08
-2.45707e-07
-3.73099e-08
-2.18817e-07
-9.61413e-08
-1.77084e-07
-1.50183e-07
-1.22671e-07
-1.96285e-07
-5.84605e-08
-2.31894e-07
1.21194e-08
-2.55089e-07
8.52772e-08
-2.64595e-07
1.57052e-07
-2.59814e-07
2.23514e-07
-2.40844e-07
2.80956e-07
-2.08471e-07
3.26089e-07
-1.64164e-07
3.56233e-07
-1.1007e-07
3.69496e-07
-4.89898e-08
3.64946e-07
1.56407e-08
3.42766e-07
7.97918e-08
3.0439e-07
1.38869e-07
2.52617e-07
1.87725e-07
1.91709e-07
2.20705e-07
1.27472e-07
2.31734e-07
6.73879e-08
2.14475e-07
2.08667e-08
1.62572e-07
6.98797e-08
-1.67738e-08
7.6397e-08
-5.37453e-08
1.71882e-07
-1.00521e-07
2.20064e-07
-1.48913e-07
2.29313e-07
-1.9248e-07
2.0747e-07
-2.26324e-07
1.62009e-07
-2.46964e-07
9.99683e-08
-2.52258e-07
2.78841e-08
-2.4131e-07
-4.82628e-08
-2.14371e-07
-1.23087e-07
-1.7271e-07
-1.91851e-07
-1.18475e-07
-2.50526e-07
-5.4532e-08
-2.95844e-07
1.57103e-08
-3.25337e-07
8.84779e-08
-3.37368e-07
1.59829e-07
-3.31169e-07
2.25851e-07
-3.0687e-07
2.82856e-07
-2.65478e-07
3.27573e-07
-2.08883e-07
3.57338e-07
-1.39836e-07
3.70275e-07
-6.19269e-08
3.65461e-07
2.04545e-08
3.43083e-07
1.02171e-07
3.04567e-07
1.77386e-07
2.52694e-07
2.39599e-07
1.91697e-07
2.81702e-07
1.27366e-07
2.96064e-07
6.72057e-08
2.74634e-07
2.07142e-08
2.09061e-07
9.05909e-08
-1.55833e-08
9.19836e-08
-5.02255e-08
2.06528e-07
-9.42237e-08
2.64064e-07
-1.39811e-07
2.74901e-07
-1.80856e-07
2.48514e-07
-2.12694e-07
1.93845e-07
-2.32018e-07
1.19289e-07
-2.36794e-07
3.26555e-08
-2.26174e-07
-5.88888e-08
-2.00396e-07
-1.48871e-07
-1.60668e-07
-2.31584e-07
-1.09032e-07
-3.02168e-07
-4.82101e-08
-3.56672e-07
1.85573e-08
-3.9211e-07
8.76838e-08
-4.06499e-07
1.55423e-07
-3.98913e-07
2.18057e-07
-3.69506e-07
2.72077e-07
-3.19502e-07
3.14377e-07
-2.51184e-07
3.42422e-07
-1.67883e-07
3.5443e-07
-7.39361e-08
3.49525e-07
2.53586e-08
3.27885e-07
1.23809e-07
2.90871e-07
2.14398e-07
2.41137e-07
2.89331e-07
1.8273e-07
3.40107e-07
1.21202e-07
3.57588e-07
6.37667e-08
3.32064e-07
1.95448e-08
2.53278e-07
1.10134e-07
-1.38841e-08
1.0587e-07
-4.49945e-08
2.3764e-07
-8.46671e-08
3.03738e-07
-1.25854e-07
3.16087e-07
-1.62952e-07
2.85611e-07
-1.91694e-07
2.22585e-07
-2.09053e-07
1.36645e-07
-2.13169e-07
3.67677e-08
-2.0327e-07
-6.8792e-08
-1.79578e-07
-1.72567e-07
-1.43197e-07
-2.67969e-07
-9.59922e-08
-3.49377e-07
-4.04484e-08
-4.12219e-07
2.04769e-08
-4.53038e-07
8.35127e-08
-4.69536e-07
1.45243e-07
-4.60643e-07
2.02274e-07
-4.26537e-07
2.51406e-07
-3.68633e-07
2.898e-07
-2.89578e-07
3.15143e-07
-1.93227e-07
3.25806e-07
-8.4599e-08
3.20986e-07
3.01776e-08
3.00849e-07
1.43946e-07
2.66645e-07
2.486e-07
2.20816e-07
3.35158e-07
1.67095e-07
3.93825e-07
1.10608e-07
4.14073e-07
5.80124e-08
3.84657e-07
1.76851e-08
2.93603e-07
1.2782e-07
-1.18711e-08
1.17742e-07
-3.86563e-08
2.64425e-07
-7.29402e-08
3.38022e-07
-1.086e-07
3.51746e-07
-1.40734e-07
3.17743e-07
-1.65592e-07
2.47441e-07
-1.80517e-07
1.51567e-07
-1.83876e-07
4.0124e-08
-1.74995e-07
-7.76754e-08
-1.54072e-07
-1.93492e-07
-1.2208e-07
-2.99963e-07
-8.06545e-08
-3.90804e-07
-3.19722e-08
-4.60901e-07
2.13771e-08
-5.06386e-07
7.65315e-08
-5.24689e-07
1.30503e-07
-5.14612e-07
1.80322e-07
-4.76353e-07
2.23187e-07
-4.11494e-07
2.56611e-07
-3.22998e-07
2.78564e-07
-2.15177e-07
2.87614e-07
-9.36479e-08
2.83059e-07
3.4734e-08
2.65044e-07
1.61962e-07
2.34674e-07
2.78971e-07
1.94112e-07
3.75719e-07
1.46668e-07
4.41269e-07
9.68893e-08
4.63853e-07
5.06677e-08
4.3088e-07
1.53714e-08
3.28902e-07
1.43196e-07
-9.68078e-09
1.27423e-07
-3.16577e-08
2.864e-07
-5.98766e-08
3.66239e-07
-8.92732e-08
3.81141e-07
-1.15761e-07
3.4423e-07
-1.36207e-07
2.67884e-07
-1.48383e-07
1.63741e-07
-1.50927e-07
4.26668e-08
-1.4328e-07
-8.53235e-08
-1.25613e-07
-2.11159e-07
-9.87438e-08
-3.26832e-07
-6.40424e-08
-4.25504e-07
-2.33289e-08
-5.01612e-07
2.1235e-08
-5.50947e-07
6.72629e-08
-5.70713e-07
1.12264e-07
-5.59609e-07
1.53761e-07
-5.17845e-07
1.89416e-07
-4.47143e-07
2.17149e-07
-3.50726e-07
2.35263e-07
-2.33286e-07
2.42557e-07
-1.00938e-07
2.38439e-07
3.88552e-08
2.23032e-07
1.77372e-07
1.9727e-07
3.04737e-07
1.62981e-07
4.10012e-07
1.22966e-07
4.81287e-07
8.10766e-08
5.05747e-07
4.22858e-08
4.69676e-07
1.27741e-08
3.58421e-07
1.55974e-07
-7.41058e-09
1.34833e-07
-2.433e-08
3.03317e-07
-4.61118e-08
3.8802e-07
-6.88232e-08
4.0385e-07
-8.92682e-08
3.64673e-07
-1.04987e-07
2.83602e-07
-1.14234e-07
1.72987e-07
-1.15942e-07
4.43739e-08
-1.0968e-07
-9.15865e-08
-9.55901e-08
-2.25249e-07
-7.43221e-08
-3.48099e-07
-4.69566e-08
-4.52869e-07
-1.49238e-08
-5.33643e-07
2.00817e-08
-5.85949e-07
5.61912e-08
-6.0682e-07
9.1455e-08
-5.9487e-07
1.23933e-07
-5.50321e-07
1.51793e-07
-4.74999e-07
1.73401e-07
-3.7233e-07
1.87422e-07
-2.47302e-07
1.92905e-07
-1.06418e-07
1.89382e-07
4.23812e-08
1.76948e-07
1.89809e-07
1.56341e-07
3.25347e-07
1.29016e-07
4.3734e-07
9.72071e-08
5.13101e-07
6.39799e-08
5.3898e-07
3.32885e-08
5.00375e-07
1.00178e-08
3.81698e-07
1.65993e-07
-5.13115e-09
1.39964e-07
-1.69198e-08
3.15103e-07
-3.21292e-08
4.03228e-07
-4.79855e-08
4.19704e-07
-6.22194e-08
3.78905e-07
-7.30807e-08
2.94461e-07
-7.93286e-08
1.79232e-07
-8.02116e-08
4.52545e-08
-7.54333e-08
-9.63668e-08
-6.51078e-08
-2.35576e-07
-4.97085e-08
-3.635e-07
-3.00134e-08
-4.72565e-07
-7.04493e-09
-5.56613e-07
1.79902e-08
-6.10985e-07
4.37646e-08
-6.32595e-07
6.88932e-08
-6.2e-07
9.19973e-08
-5.73427e-07
1.11771e-07
-4.94775e-07
1.27051e-07
-3.87609e-07
1.36876e-07
-2.57127e-07
1.40564e-07
-1.10105e-07
1.3777e-07
4.51755e-08
1.28556e-07
1.99023e-07
1.13454e-07
3.4045e-07
9.35159e-08
4.5728e-07
7.03654e-08
5.36255e-07
4.62349e-08
5.63114e-07
2.3999e-08
5.22613e-07
7.19364e-09
3.98504e-07
1.73183e-07
-2.89382e-09
1.42857e-07
-9.61077e-09
3.21816e-07
-1.8294e-08
4.11908e-07
-2.73228e-08
4.28729e-07
-3.5361e-08
3.86939e-07
-4.13788e-08
3.00474e-07
-4.46509e-08
1.82501e-07
-4.47474e-08
4.53473e-08
-4.15113e-08
-9.96066e-08
-3.50276e-08
-2.42063e-07
-2.5591e-08
-3.72938e-07
-1.36729e-08
-4.84487e-07
1.17458e-10
-5.70407e-07
1.50677e-08
-6.25937e-07
3.03984e-08
-6.47927e-07
4.52958e-08
-6.34901e-07
5.89485e-08
-5.87084e-07
7.05864e-08
-5.06418e-07
7.95178e-08
-3.96546e-07
8.51682e-08
-2.62782e-07
8.71209e-08
-1.12061e-07
8.51591e-08
4.7135e-08
7.93095e-08
2.04871e-07
6.9885e-08
3.49873e-07
5.75231e-08
4.69641e-07
4.32166e-08
5.50561e-07
2.83398e-08
5.77989e-07
1.46658e-08
5.36285e-07
4.3704e-09
4.08794e-07
1.77549e-07
-7.35707e-10
1.43591e-07
-2.53736e-09
3.23612e-07
-4.87682e-09
4.14243e-07
-7.25678e-09
4.31104e-07
-9.25776e-09
3.88935e-07
-1.05617e-08
3.01773e-07
-1.09544e-08
1.8289e-07
-1.0325e-08
4.47144e-08
-8.65519e-09
-1.0128e-07
-6.0017e-09
-2.44719e-07
-2.48114e-09
-3.7646e-07
1.7388e-09
-4.88708e-07
6.45673e-09
-5.75128e-07
1.14492e-08
-6.30932e-07
1.64774e-08
-6.52956e-07
2.12912e-08
-6.39715e-07
2.56396e-08
-5.91435e-07
2.92811e-08
-5.10063e-07
3.19922e-08
-3.9926e-07
3.35784e-08
-2.64371e-07
3.38877e-08
-1.12372e-07
3.28282e-08
4.81938e-08
3.03893e-08
2.0731e-07
2.66644e-08
3.53598e-07
2.1872e-08
4.74434e-07
1.63728e-08
5.5606e-07
1.0683e-08
5.83678e-07
5.48074e-09
5.41484e-07
1.60191e-09
4.12669e-07
1.79153e-07
1.31758e-09
1.42271e-07
4.20581e-09
3.20717e-07
7.92845e-09
4.10515e-07
1.19064e-08
4.2712e-07
1.56764e-08
3.85161e-07
1.88687e-08
2.98577e-07
2.12026e-08
1.80553e-07
2.24813e-08
4.34347e-08
2.25893e-08
-1.0139e-07
2.14969e-08
-2.43628e-07
1.92616e-08
-3.74222e-07
1.60111e-08
-4.85455e-07
1.1939e-08
-5.71055e-07
7.29377e-09
-6.26286e-07
2.35861e-09
-6.48019e-07
-2.57116e-09
-6.34781e-07
-7.20388e-09
-5.86798e-07
-1.12698e-08
-5.05994e-07
-1.45393e-08
-3.95988e-07
-1.68391e-08
-2.62068e-07
-1.80646e-08
-1.11142e-07
-1.81869e-08
4.83208e-08
-1.7254e-08
2.06383e-07
-1.53879e-08
3.51737e-07
-1.27801e-08
4.71831e-07
-9.68878e-09
5.52972e-07
-6.43572e-09
5.80428e-07
-3.40857e-09
5.3846e-07
-1.06898e-09
4.10335e-07
1.78094e-07
3.24984e-09
1.39019e-07
1.05563e-08
3.13404e-07
1.99903e-08
4.01077e-07
2.99551e-08
4.17151e-07
3.91516e-08
3.75962e-07
4.65582e-08
2.91168e-07
5.14255e-08
1.75684e-07
5.32669e-08
4.15947e-08
5.18422e-08
-9.99639e-08
4.71478e-08
-2.38936e-07
3.94073e-08
-3.6648e-07
2.90317e-08
-4.75075e-07
1.65901e-08
-5.58611e-07
2.77762e-09
-6.12474e-07
-1.16275e-08
-6.33613e-07
-2.58111e-08
-6.20595e-07
-3.89659e-08
-5.73639e-07
-5.03365e-08
-4.94619e-07
-5.92632e-08
-3.87056e-07
-6.52235e-08
-2.56102e-07
-6.78686e-08
-1.08491e-07
-6.70544e-08
4.75134e-08
-6.28642e-08
2.02199e-07
-5.56254e-08
3.44505e-07
-4.59213e-08
4.62132e-07
-3.46015e-08
5.41658e-07
-2.27894e-08
5.68621e-07
-1.18919e-08
5.2757e-07
-3.61129e-09
4.02068e-07
1.7449e-07
5.0518e-09
1.33965e-07
1.64753e-08
3.01976e-07
3.12245e-08
3.86325e-07
4.67508e-08
4.01622e-07
6.09758e-08
3.61737e-07
7.22717e-08
2.7987e-07
7.94529e-08
1.685e-07
8.17659e-08
3.92824e-08
7.88592e-08
-9.70544e-08
7.07551e-08
-2.30835e-07
5.78318e-08
-3.5356e-07
4.07671e-08
-4.5801e-07
2.04823e-08
-5.38326e-07
-1.91069e-09
-5.90083e-07
-2.51726e-08
-6.10355e-07
-4.80053e-08
-5.97766e-07
-6.91205e-08
-5.52526e-07
-8.73094e-08
-4.7643e-07
-1.01511e-07
-3.72854e-07
-1.10876e-07
-2.46736e-07
-1.14827e-07
-1.04538e-07
-1.13112e-07
4.57992e-08
-1.05844e-07
1.94933e-07
-9.35421e-08
3.32203e-07
-7.71544e-08
4.45745e-07
-5.80839e-08
5.22588e-07
-3.82066e-08
5.48747e-07
-1.98893e-08
5.09259e-07
-6.00732e-09
3.88194e-07
1.68478e-07
6.71933e-09
1.27244e-07
2.19413e-08
2.8675e-07
4.15809e-08
3.66684e-07
6.22082e-08
3.80991e-07
8.10281e-08
3.42916e-07
9.58605e-08
2.65037e-07
1.05122e-07
1.59233e-07
1.07816e-07
3.65843e-08
1.03496e-07
-9.27325e-08
9.22144e-08
-2.19556e-07
7.44895e-08
-3.35843e-07
5.12437e-08
-4.34769e-07
2.37243e-08
-5.10809e-07
-6.57294e-09
-5.59788e-07
-3.79865e-08
-5.78946e-07
-6.87758e-08
-5.66982e-07
-9.72121e-08
-5.24096e-07
-1.21671e-07
-4.51977e-07
-1.40724e-07
-3.53807e-07
-1.53219e-07
-2.34244e-07
-1.58371e-07
-9.93909e-08
-1.55822e-07
4.32462e-08
-1.45713e-07
1.8482e-07
-1.28734e-07
3.1522e-07
-1.06165e-07
4.23172e-07
-7.99156e-08
4.96337e-07
-5.25565e-08
5.21388e-07
-2.73443e-08
4.84049e-07
-8.2492e-09
3.69096e-07
1.60219e-07
8.2512e-09
1.18991e-07
2.69428e-08
2.68055e-07
5.10289e-08
3.42595e-07
7.62725e-08
3.55742e-07
9.92292e-08
3.19955e-07
1.17226e-07
2.47041e-07
1.28326e-07
1.48129e-07
1.31317e-07
3.35846e-08
1.25673e-07
-8.70877e-08
1.11478e-07
-2.05359e-07
8.93829e-08
-3.13749e-07
6.05264e-08
-4.05918e-07
2.645e-08
-4.76735e-07
-1.10031e-08
-5.22334e-07
-4.97902e-08
-5.40156e-07
-8.77739e-08
-5.28997e-07
-1.22831e-07
-4.89038e-07
-1.52964e-07
-4.21843e-07
-1.76412e-07
-3.30359e-07
-1.91753e-07
-2.18902e-07
-1.98007e-07
-9.31362e-08
-1.94722e-07
3.99626e-08
-1.82059e-07
1.72157e-07
-1.60854e-07
2.94016e-07
-1.32683e-07
3.95004e-07
-9.99105e-08
4.63568e-07
-6.57305e-08
4.87213e-07
-3.42112e-08
4.52532e-07
-1.03271e-08
3.45205e-07
1.49896e-07
9.64666e-09
1.09343e-07
3.1469e-08
2.46228e-07
5.95392e-08
3.14524e-07
8.88928e-08
3.26383e-07
1.15506e-07
2.93334e-07
1.36279e-07
2.26272e-07
1.48972e-07
1.35438e-07
1.52187e-07
3.03636e-08
1.45326e-07
-8.02313e-08
1.28517e-07
-1.88545e-07
1.02528e-07
-2.87755e-07
6.86902e-08
-3.7208e-07
2.88015e-08
-4.36848e-07
-1.49899e-08
-4.78543e-07
-6.03054e-08
-4.94836e-07
-1.04658e-07
-4.84637e-07
-1.4558e-07
-4.48109e-07
-1.80746e-07
-3.8667e-07
-2.08104e-07
-3.02994e-07
-2.25993e-07
-2.01007e-07
-2.33259e-07
-8.58637e-08
-2.29364e-07
3.60738e-08
-2.14477e-07
1.57278e-07
-1.89562e-07
2.69109e-07
-1.56444e-07
3.61896e-07
-1.17881e-07
4.25015e-07
-7.76176e-08
4.46957e-07
-4.04386e-08
4.15356e-07
-1.22203e-08
3.16989e-07
1.37691e-07
1.09024e-08
9.84393e-08
3.54988e-08
2.21624e-07
6.70605e-08
2.82963e-07
9.99863e-08
2.93458e-07
1.2975e-07
2.63562e-07
1.52888e-07
2.03133e-07
1.66918e-07
1.21416e-07
1.70293e-07
2.69907e-08
1.62355e-07
-7.23009e-08
1.43268e-07
-1.69461e-07
1.13911e-07
-2.58395e-07
7.57861e-08
-3.33952e-07
3.09046e-08
-3.91968e-07
-1.83277e-08
-4.29316e-07
-6.92474e-08
-4.43922e-07
-1.19071e-07
-4.34817e-07
-1.65038e-07
-4.02145e-07
-2.04545e-07
-3.47164e-07
-2.35291e-07
-2.7225e-07
-2.55411e-07
-1.80889e-07
-2.63601e-07
-7.76757e-08
-2.59243e-07
3.17137e-08
-2.42509e-07
1.40543e-07
-2.1446e-07
2.41059e-07
-1.77129e-07
3.24565e-07
-1.33599e-07
3.81484e-07
-8.80746e-08
4.01428e-07
-4.59552e-08
3.73231e-07
-1.39065e-08
2.84947e-07
1.23782e-07
1.20068e-08
8.6432e-08
3.89838e-08
1.9464e-07
7.34888e-08
2.48458e-07
1.09391e-07
2.57564e-07
1.41753e-07
2.31193e-07
1.66818e-07
1.78061e-07
1.81914e-07
1.06321e-07
1.8539e-07
2.35217e-08
1.76547e-07
-6.34609e-08
1.55574e-07
-1.48499e-07
1.23446e-07
-2.26274e-07
8.18066e-08
-2.92313e-07
3.28452e-08
-3.43007e-07
-2.08276e-08
-3.75645e-07
-7.63218e-08
-3.88431e-07
-1.30618e-07
-3.80525e-07
-1.80718e-07
-3.52049e-07
-2.23799e-07
-3.04089e-07
-2.57356e-07
-2.38697e-07
-2.79357e-07
-1.58893e-07
-2.88374e-07
-6.8663e-08
-2.83718e-07
2.70539e-08
-2.65557e-07
1.22378e-07
-2.35022e-07
2.10522e-07
-1.94304e-07
2.83843e-07
-1.46738e-07
3.33911e-07
-9.68906e-08
3.51574e-07
-5.06561e-08
3.26994e-07
-1.53704e-08
2.4967e-07
1.08397e-07
1.29305e-08
7.35038e-08
4.18225e-08
1.65743e-07
7.86263e-08
2.11646e-07
1.16812e-07
2.19389e-07
1.51143e-07
1.96862e-07
1.77649e-07
1.51546e-07
1.93521e-07
9.04401e-08
1.97043e-07
2.00026e-08
1.87502e-07
-5.3913e-08
1.65109e-07
-1.26106e-07
1.30908e-07
-1.92076e-07
8.66477e-08
-2.48052e-07
3.46521e-08
-2.91007e-07
-2.23175e-08
-3.18668e-07
-8.12087e-08
-3.29532e-07
-1.38833e-07
-3.22893e-07
-1.92024e-07
-2.98851e-07
-2.37795e-07
-2.58311e-07
-2.73497e-07
-2.02988e-07
-2.9697e-07
-1.35413e-07
-3.06692e-07
-5.89337e-08
-3.01914e-07
2.22847e-08
-2.82794e-07
1.03267e-07
-2.50505e-07
1.7824e-07
-2.07342e-07
2.40685e-07
-1.56813e-07
2.83388e-07
-1.0374e-07
2.98508e-07
-5.43745e-08
2.77644e-07
-1.6573e-08
2.11872e-07
9.18339e-08
1.36122e-08
5.98942e-08
4.38236e-08
1.35535e-07
8.21303e-08
1.7332e-07
1.21757e-07
1.79764e-07
1.57306e-07
1.6132e-07
1.84686e-07
1.24167e-07
2.01014e-07
7.41062e-08
2.0454e-07
1.64742e-08
1.94555e-07
-4.39233e-08
1.713e-07
-1.02845e-07
1.3586e-07
-1.56636e-07
9.00462e-08
-2.02244e-07
3.626e-08
-2.37227e-07
-2.26515e-08
-2.59761e-07
-8.35455e-08
-2.68642e-07
-1.43142e-07
-2.633e-07
-1.98182e-07
-2.43814e-07
-2.45591e-07
-2.10906e-07
-2.82635e-07
-1.65949e-07
-3.07077e-07
-1.10974e-07
-3.17334e-07
-4.86805e-08
-3.12614e-07
1.75617e-08
-2.93056e-07
8.37049e-08
-2.59847e-07
1.45027e-07
-2.15331e-07
1.96163e-07
-1.63105e-07
2.31158e-07
-1.08125e-07
2.43528e-07
-5.6843e-08
2.26364e-07
-1.74133e-08
1.72422e-07
7.44247e-08
1.3944e-08
4.59465e-08
4.46651e-08
1.04828e-07
8.34481e-08
1.34522e-07
1.23461e-07
1.39746e-07
1.59299e-07
1.25488e-07
1.86861e-07
9.66117e-08
2.0326e-07
5.77042e-08
2.06751e-07
1.2972e-08
1.96647e-07
-3.38273e-08
1.73215e-07
-7.94118e-08
1.37557e-07
-1.20975e-07
9.14992e-08
-1.56183e-07
3.74502e-08
-1.83177e-07
-2.17384e-08
-2.00573e-07
-8.2923e-08
-2.07457e-07
-1.42824e-07
-2.03399e-07
-1.98185e-07
-1.88454e-07
-2.45926e-07
-1.63165e-07
-2.83304e-07
-1.2857e-07
-3.08069e-07
-8.62086e-08
-3.18616e-07
-3.81338e-08
-3.14128e-07
1.30741e-08
-2.94721e-07
6.42962e-08
-2.61561e-07
1.11865e-07
-2.16982e-07
1.51584e-07
-1.6458e-07
1.78757e-07
-1.09313e-07
1.88266e-07
-5.7649e-08
1.74692e-07
-1.77468e-08
1.32527e-07
5.66695e-08
1.37538e-08
3.21806e-08
4.38524e-08
7.47494e-08
8.17457e-08
9.66273e-08
1.20791e-07
1.00695e-07
1.55736e-07
9.05373e-08
1.82603e-07
6.97508e-08
1.98589e-07
4.17284e-08
2.02004e-07
9.55836e-09
1.92199e-07
-2.40267e-08
1.69454e-07
-5.66712e-08
1.34863e-07
-8.63836e-08
9.02037e-08
-1.11522e-07
3.78127e-08
-1.30784e-07
-1.95555e-08
-1.43202e-07
-7.88685e-08
-1.48142e-07
-1.36965e-07
-1.45301e-07
-1.90702e-07
-1.34715e-07
-2.37107e-07
-1.16759e-07
-2.73522e-07
-9.21529e-08
-2.97758e-07
-6.19705e-08
-3.08239e-07
-2.7651e-08
-3.04148e-07
8.98478e-09
-2.85569e-07
4.57173e-08
-2.53611e-07
7.99082e-08
-2.10525e-07
1.08501e-07
-1.59804e-07
1.2804e-07
-1.06265e-07
1.34728e-07
-5.61667e-08
1.24582e-07
-1.73741e-08
9.37506e-08
3.93004e-08
1.27745e-08
1.93933e-08
4.06756e-08
4.68615e-08
7.58548e-08
6.14481e-08
1.12166e-07
6.43836e-08
1.44699e-07
5.79978e-08
1.69727e-07
4.47182e-08
1.84646e-07
2.68134e-08
1.87903e-07
6.3084e-09
1.78915e-07
-1.50357e-08
1.57966e-07
-3.57237e-08
1.26089e-07
-5.45089e-08
8.49388e-08
-7.03745e-08
3.66735e-08
-8.252e-08
-1.61761e-08
-9.0354e-08
-7.08309e-08
-9.34886e-08
-1.24395e-07
-9.1738e-08
-1.7399e-07
-8.51217e-08
-2.16884e-07
-7.38663e-08
-2.5063e-07
-5.84093e-08
-2.73195e-07
-3.94072e-08
-2.83102e-07
-1.77457e-08
-2.79566e-07
5.44602e-09
-2.62629e-07
2.87762e-08
-2.33288e-07
5.05658e-08
-1.93623e-07
6.88354e-08
-1.46889e-07
8.13035e-08
-9.75898e-08
8.54218e-08
-5.15291e-08
7.85268e-08
-1.5956e-08
5.81593e-08
2.33474e-08
1.0635e-08
8.75127e-09
3.42184e-08
2.32812e-08
6.42943e-08
3.13753e-08
9.55338e-08
3.31477e-08
1.23611e-07
2.99192e-08
1.45247e-07
2.30734e-08
1.58187e-07
1.38663e-08
1.6112e-07
3.37482e-09
1.5358e-07
-7.49334e-09
1.35844e-07
-1.79844e-08
1.08816e-07
-2.74795e-08
7.39227e-08
-3.54799e-08
3.3e-08
-4.15961e-08
-1.18103e-08
-4.55425e-08
-5.81652e-08
-4.71327e-08
-1.03626e-07
-4.62762e-08
-1.45767e-07
-4.29803e-08
-1.82279e-07
-3.73529e-08
-2.11084e-07
-2.96036e-08
-2.30441e-07
-2.00493e-08
-2.39066e-07
-9.12027e-09
-2.3625e-07
2.62976e-09
-2.21983e-07
1.45089e-08
-1.97081e-07
2.56654e-08
-1.63313e-07
3.50688e-08
-1.23506e-07
4.14932e-08
-8.16126e-08
4.35226e-08
-4.27254e-08
3.96569e-08
-1.30668e-08
2.84924e-08
1.02885e-08
6.90483e-09
1.84305e-09
2.35172e-08
6.67083e-09
4.54086e-08
9.48375e-09
6.84249e-08
1.01369e-08
8.9195e-08
9.15799e-09
1.05222e-07
7.05072e-09
1.14842e-07
4.24341e-09
1.17134e-07
1.07883e-09
1.11808e-07
-2.16945e-09
9.91048e-08
-5.28284e-09
7.971e-08
-8.08585e-09
5.46679e-08
-1.04389e-08
2.53046e-08
-1.22339e-08
-6.84682e-09
-1.33924e-08
-4.01174e-08
-1.38637e-08
-7.27727e-08
-1.36225e-08
-1.03085e-07
-1.26698e-08
-1.29405e-07
-1.10344e-08
-1.50236e-07
-8.77353e-09
-1.64314e-07
-5.97398e-09
-1.70682e-07
-2.75467e-09
-1.68785e-07
7.29857e-10
-1.5856e-07
4.28266e-09
-1.4055e-07
7.65328e-09
-1.16011e-07
1.05268e-08
-8.70315e-08
1.25092e-08
-5.66191e-08
1.31144e-08
-2.87743e-08
1.17954e-08
-8.27418e-09
7.98303e-09
2.02987e-09
1.8448e-09
8.51501e-09
1.79951e-08
2.81277e-08
3.72843e-08
4.43365e-08
4.85823e-08
4.96628e-08
4.74944e-08
4.22124e-08
3.41275e-08
2.36897e-08
1.14568e-08
-1.93477e-09
-1.57977e-08
-2.94193e-08
-4.20881e-08
-5.31215e-08
-6.18946e-08
-6.78685e-08
-7.06228e-08
-6.98919e-08
-6.56083e-08
-5.79552e-08
-4.74308e-08
-3.49225e-08
-2.17936e-08
-1.00028e-08
-2.0201e-09
)
;

boundaryField
{
    floor
    {
        type            calculated;
        value           uniform 0;
    }
    ceiling
    {
        type            calculated;
        value           uniform 0;
    }
    fixedWalls
    {
        type            calculated;
        value           uniform 0;
    }
    frontAndBack
    {
        type            empty;
    }
}


// ************************************************************************* //
