/*--------------------------------*- C++ -*----------------------------------*\
| =========                 |                                                 |
| \\      /  F ield         | OpenFOAM: The Open Source CFD Toolbox           |
|  \\    /   O peration     | Version:  2412                                  |
|   \\  /    A nd           | Website:  www.openfoam.com                      |
|    \\/     M anipulation  |                                                 |
\*---------------------------------------------------------------------------*/
FoamFile
{
    version     2.0;
    format      ascii;
    arch        "LSB;label=32;scalar=64";
    class       volVectorField;
    location    "500";
    object      U;
}
// * * * * * * * * * * * * * * * * * * * * * * * * * * * * * * * * * * * * * //

dimensions      [0 1 -1 0 0 0 0];

internalField   nonuniform List<vector> 
900
(
(2.20396e-08 1.82203e-07 0)
(-1.74782e-05 3.8559e-06 0)
(-5.15594e-05 6.19109e-06 0)
(-9.22083e-05 6.80756e-06 0)
(-0.000132151 6.20163e-06 0)
(-0.000166032 4.8263e-06 0)
(-0.000190218 3.02011e-06 0)
(-0.000202524 1.01519e-06 0)
(-0.000201936 -1.02331e-06 0)
(-0.000188405 -2.96873e-06 0)
(-0.000162699 -4.71806e-06 0)
(-0.000126276 -6.18843e-06 0)
(-8.11468e-05 -7.31508e-06 0)
(-2.97615e-05 -8.04937e-06 0)
(2.5133e-05 -8.36275e-06 0)
(8.06073e-05 -8.23971e-06 0)
(0.000133683 -7.67912e-06 0)
(0.000181458 -6.70056e-06 0)
(0.000221246 -5.33994e-06 0)
(0.000250704 -3.65076e-06 0)
(0.000267972 -1.70448e-06 0)
(0.000271797 4.08238e-07 0)
(0.000261677 2.57606e-06 0)
(0.00023799 4.66127e-06 0)
(0.000202184 6.47521e-06 0)
(0.000157005 7.75028e-06 0)
(0.000106823 8.09679e-06 0)
(5.78952e-05 7.00404e-06 0)
(1.85812e-05 3.92586e-06 0)
(-4.52611e-07 -5.98467e-07 0)
(-4.38677e-06 1.80253e-05 0)
(-5.35691e-05 5.1143e-05 0)
(-0.000133761 7.09554e-05 0)
(-0.00022647 7.61526e-05 0)
(-0.00031678 6.96706e-05 0)
(-0.000393362 5.47425e-05 0)
(-0.000447976 3.42787e-05 0)
(-0.000475364 1.07186e-05 0)
(-0.000472877 -1.39077e-05 0)
(-0.000440151 -3.78868e-05 0)
(-0.000378805 -5.97669e-05 0)
(-0.00029215 -7.83455e-05 0)
(-0.000184881 -9.26642e-05 0)
(-6.27784e-05 -0.000102008 0)
(6.76263e-05 -0.000105913 0)
(0.000199324 -0.000104157 0)
(0.000325211 -9.67634e-05 0)
(0.000438372 -8.40201e-05 0)
(0.00053244 -6.64695e-05 0)
(0.00060191 -4.491e-05 0)
(0.000642476 -2.03964e-05 0)
(0.000651352 5.75783e-06 0)
(0.000627587 3.19781e-05 0)
(0.000572379 5.63985e-05 0)
(0.000489422 7.67712e-05 0)
(0.000385275 9.03862e-05 0)
(0.000269757 9.40359e-05 0)
(0.000156004 8.42604e-05 0)
(6.08484e-05 5.82388e-05 0)
(4.55222e-06 1.86368e-05 0)
(-7.35098e-06 5.43611e-05 0)
(-7.89888e-05 0.000133011 0)
(-0.0001894 0.000176599 0)
(-0.000314643 0.000187052 0)
(-0.000435654 0.000170558 0)
(-0.000537936 0.000133914 0)
(-0.000610627 8.35567e-05 0)
(-0.000646588 2.52111e-05 0)
(-0.000642085 -3.61327e-05 0)
(-0.000596467 -9.61403e-05 0)
(-0.000511815 -0.000151086 0)
(-0.00039256 -0.000197853 0)
(-0.000245079 -0.000233945 0)
(-7.72837e-05 -0.000257491 0)
(0.000101856 -0.000267268 0)
(0.000282679 -0.00026269 0)
(0.000455403 -0.000243841 0)
(0.00061052 -0.000211475 0)
(0.000739295 -0.000167017 0)
(0.000834222 -0.000112555 0)
(0.000889479 -5.08357e-05 0)
(0.000901376 1.47397e-05 0)
(0.000868779 8.01298e-05 0)
(0.000793506 0.000140625 0)
(0.000680728 0.000190747 0)
(0.000539318 0.000224212 0)
(0.000382176 0.000234019 0)
(0.000226062 0.000212996 0)
(9.25081e-05 0.000155163 0)
(8.20626e-06 6.04577e-05 0)
(-8.70828e-06 0.000101177 0)
(-9.26848e-05 0.000235411 0)
(-0.000220214 0.000306388 0)
(-0.000363636 0.000321949 0)
(-0.000501456 0.000292626 0)
(-0.000617538 0.000229351 0)
(-0.000699692 0.00014257 0)
(-0.000739808 4.18209e-05 0)
(-0.000733568 -6.43763e-05 0)
(-0.000680151 -0.000168496 0)
(-0.000581875 -0.000264004 0)
(-0.000443783 -0.000345401 0)
(-0.000273192 -0.000408256 0)
(-7.9215e-05 -0.000449244 0)
(0.000127781 -0.000466171 0)
(0.000336615 -0.000458002 0)
(0.000535971 -0.000424898 0)
(0.000714855 -0.000368208 0)
(0.000863189 -0.000290471 0)
(0.000972338 -0.000195399 0)
(0.00103564 -8.78633e-05 0)
(0.00104893 2.61371e-05 0)
(0.00101099 0.000139517 0)
(0.000924001 0.000244112 0)
(0.000793932 0.000330618 0)
(0.000630855 0.000388631 0)
(0.000449244 0.000406854 0)
(0.000267782 0.000373744 0)
(0.000110918 0.000278794 0)
(1.00537e-05 0.000115688 0)
(-8.98186e-06 0.000152462 0)
(-9.71963e-05 0.000347335 0)
(-0.000231162 0.000447575 0)
(-0.000381464 0.000468045 0)
(-0.000525523 0.000424366 0)
(-0.000646558 0.000331995 0)
(-0.000731895 0.000205627 0)
(-0.00077308 5.88315e-05 0)
(-0.000765578 -9.61009e-05 0)
(-0.000708501 -0.000248196 0)
(-0.000604256 -0.000387861 0)
(-0.000458127 -0.000506978 0)
(-0.000277807 -0.000598984 0)
(-7.29016e-05 -0.000658942 0)
(0.000145642 -0.000683581 0)
(0.000366011 -0.000671364 0)
(0.000576251 -0.000622542 0)
(0.000764748 -0.000539129 0)
(0.00092087 -0.000424898 0)
(0.00103552 -0.000285362 0)
(0.00110171 -0.00012773 0)
(0.00111509 3.91486e-05 0)
(0.00107441 0.000204871 0)
(0.000982002 0.000357546 0)
(0.000844152 0.000483793 0)
(0.000671369 0.000568851 0)
(0.000478737 0.000596848 0)
(0.00028578 0.000551354 0)
(0.000118425 0.000416298 0)
(1.06053e-05 0.000177447 0)
(-8.58969e-06 0.000204019 0)
(-9.51269e-05 0.000460577 0)
(-0.000227242 0.000590617 0)
(-0.000375605 0.000615951 0)
(-0.000517739 0.000557534 0)
(-0.000636986 0.000435502 0)
(-0.000720805 0.000268865 0)
(-0.000760831 7.5262e-05 0)
(-0.000752575 -0.000129209 0)
(-0.000695154 -0.000330083 0)
(-0.000590952 -0.000514652 0)
(-0.000445209 -0.000672129 0)
(-0.000265568 -0.000793767 0)
(-6.15797e-05 -0.00087297 0)
(0.00015586 -0.000905361 0)
(0.000374999 -0.000888891 0)
(0.000583932 -0.000823901 0)
(0.000771104 -0.000713087 0)
(0.000925935 -0.000561494 0)
(0.00103938 -0.000376481 0)
(0.00110451 -0.000167654 0)
(0.00111699 5.32301e-05 0)
(0.00107562 0.000272395 0)
(0.000982718 0.000474168 0)
(0.000844525 0.000641048 0)
(0.000671477 0.000753864 0)
(0.00047857 0.000792042 0)
(0.000285315 0.000733994 0)
(0.000117792 0.00055763 0)
(1.03275e-05 0.00024061 0)
(-7.81887e-06 0.000252975 0)
(-8.85747e-05 0.000569015 0)
(-0.000212692 0.000728081 0)
(-0.000352406 0.00075825 0)
(-0.000486351 0.00068562 0)
(-0.000598655 0.000534898 0)
(-0.000677386 0.000329302 0)
(-0.000714604 9.04154e-05 0)
(-0.000706048 -0.000161978 0)
(-0.000650888 -0.000410032 0)
(-0.000551392 -0.00063803 0)
(-0.00041254 -0.000832593 0)
(-0.000241595 -0.000982853 0)
(-4.76316e-05 -0.0010806 0)
(0.000158989 -0.00112039 0)
(0.000367105 -0.00109967 0)
(0.000565398 -0.00101887 0)
(0.000742883 -0.000881345 0)
(0.000889502 -0.000693379 0)
(0.00099666 -0.000464125 0)
(0.00105776 -0.000205514 0)
(0.0010687 6.78731e-05 0)
(0.00102832 0.000338988 0)
(0.000938856 0.000588491 0)
(0.00080624 0.000794879 0)
(0.000640442 0.000934673 0)
(0.000455818 0.000982661 0)
(0.00027111 0.000912123 0)
(0.000111379 0.000695032 0)
(9.55191e-06 0.000301546 0)
(-6.84143e-06 0.000297456 0)
(-7.90777e-05 0.000668346 0)
(-0.000190826 0.000854521 0)
(-0.000316976 0.000889386 0)
(-0.000438063 0.000803706 0)
(-0.000539552 0.000626428 0)
(-0.000610521 0.000384703 0)
(-0.000643706 0.000103801 0)
(-0.000635222 -0.000193056 0)
(-0.000584319 -0.000484876 0)
(-0.000493077 -0.000753144 0)
(-0.000366047 -0.000982074 0)
(-0.000209863 -0.00115883 0)
(-3.2803e-05 -0.0012737 0)
(0.000155674 -0.00132024 0)
(0.000345395 -0.00129545 0)
(0.000526032 -0.00119981 0)
(0.000687564 -0.00103732 0)
(0.000820808 -0.000815395 0)
(0.000917915 -0.000544857 0)
(0.000972858 -0.000239802 0)
(0.000981883 8.25628e-05 0)
(0.000943935 0.000402137 0)
(0.000861056 0.000696151 0)
(0.000738711 0.000939349 0)
(0.000586077 0.0011042 0)
(0.000416402 0.00116109 0)
(0.000247007 0.00107847 0)
(0.00010098 0.000822819 0)
(8.4858e-06 0.000357776 0)
(-5.75971e-06 0.000336278 0)
(-6.77356e-05 0.000755663 0)
(-0.000164167 0.000966099 0)
(-0.000273323 0.00100535 0)
(-0.000378225 0.000908184 0)
(-0.000466109 0.000707317 0)
(-0.00052738 0.000433418 0)
(-0.000555658 0.000115071 0)
(-0.000547538 -0.000221414 0)
(-0.000502377 -0.000552229 0)
(-0.000422009 -0.000856357 0)
(-0.000310433 -0.00111586 0)
(-0.000173464 -0.00131615 0)
(-1.83529e-05 -0.00144619 0)
(0.000146621 -0.00149864 0)
(0.000312561 -0.00147008 0)
(0.000470434 -0.00136108 0)
(0.000611465 -0.00117615 0)
(0.000727613 -0.000923762 0)
(0.000811996 -0.000616205 0)
(0.000859324 -0.000269509 0)
(0.000866297 9.67689e-05 0)
(0.000831989 0.000459787 0)
(0.000758202 0.000793687 0)
(0.00064977 0.00106982 0)
(0.000514827 0.00125696 0)
(0.000365123 0.00132154 0)
(0.000216028 0.00122765 0)
(8.79221e-05 0.000936951 0)
(7.25852e-06 0.000407642 0)
(-4.63437e-06 0.000368738 0)
(-5.53328e-05 0.000829115 0)
(-0.000134607 0.00106028 0)
(-0.000224552 0.0011034 0)
(-0.000311063 0.000996554 0)
(-0.000383469 0.000775624 0)
(-0.000433737 0.000474294 0)
(-0.000456527 0.000124 0)
(-0.000449005 -0.000246295 0)
(-0.000410647 -0.000610363 0)
(-0.000343005 -0.000945046 0)
(-0.000249436 -0.00123057 0)
(-0.000134803 -0.00145086 0)
(-5.16299e-06 -0.00159373 0)
(0.000132574 -0.0016511 0)
(0.000270997 -0.0016192 0)
(0.00040257 -0.00149865 0)
(0.000519974 -0.00129443 0)
(0.000616491 -0.00101585 0)
(0.000686369 -0.000676498 0)
(0.000725173 -0.000294035 0)
(0.000730132 0.000109962 0)
(0.000700465 0.000510294 0)
(0.000637689 0.000878432 0)
(0.00054589 0.00118278 0)
(0.000431949 0.00138892 0)
(0.00030582 0.00145982 0)
(0.00018051 0.00135586 0)
(7.31814e-05 0.00103467 0)
(5.9508e-06 0.000450075 0)
(-3.50375e-06 0.000394478 0)
(-4.2435e-05 0.000887656 0)
(-0.000103567 0.00113554 0)
(-0.000173053 0.00118185 0)
(-0.000239892 0.00106724 0)
(-0.000295713 0.000830116 0)
(-0.000334208 0.000506605 0)
(-0.000351192 0.000130469 0)
(-0.000344457 -0.000267161 0)
(-0.000313617 -0.000658093 0)
(-0.000259917 -0.00101743 0)
(-0.000186011 -0.00132392 0)
(-9.57268e-05 -0.00156028 0)
(6.1834e-06 -0.00171341 0)
(0.000114304 -0.00177464 0)
(0.000222837 -0.00173992 0)
(0.000325882 -0.00160989 0)
(0.000417706 -0.00138991 0)
(0.000493038 -0.00108999 0)
(0.000547355 -0.000724717 0)
(0.00057716 -0.000313107 0)
(0.000580259 0.000121636 0)
(0.000556024 0.000552386 0)
(0.000505652 0.000948419 0)
(0.000432385 0.00127571 0)
(0.000341704 0.00149721 0)
(0.000241542 0.00157304 0)
(0.000142264 0.00146056 0)
(5.74786e-05 0.0011142 0)
(4.61272e-06 0.000484425 0)
(-2.39334e-06 0.000413379 0)
(-2.94546e-05 0.000930838 0)
(-7.21152e-05 0.00119118 0)
(-0.000120658 0.00123987 0)
(-0.00016729 0.00111944 0)
(-0.000206052 0.000870149 0)
(-0.000232457 0.000529986 0)
(-0.000243537 0.000134462 0)
(-0.000237752 -0.000283652 0)
(-0.000214865 -0.000694682 0)
(-0.000175796 -0.00107243 0)
(-0.000122467 -0.00139454 0)
(-5.76235e-05 -0.00164283 0)
(1.53456e-05 -0.00180352 0)
(9.25893e-05 -0.00186752 0)
(0.000169993 -0.00183054 0)
(0.000243362 -0.00169328 0)
(0.000308619 -0.00146134 0)
(0.00036201 -0.00114526 0)
(0.000400297 -0.000760372 0)
(0.000420967 -0.000326695 0)
(0.000422428 0.000131337 0)
(0.000404206 0.000585139 0)
(0.00036715 0.00100231 0)
(0.000313596 0.00134696 0)
(0.000247523 0.00158002 0)
(0.000174703 0.00165943 0)
(0.000102686 0.00154026 0)
(4.13517e-05 0.00117455 0)
(3.27446e-06 0.000510362 0)
(-1.32003e-06 0.000425501 0)
(-1.66938e-05 0.000958667 0)
(-4.10486e-05 0.00122709 0)
(-6.87576e-05 0.00127727 0)
(-9.52402e-05 0.00115293 0)
(-0.000116981 0.000895566 0)
(-0.000131343 0.000544377 0)
(-0.000136609 0.000136052 0)
(-0.000131918 -0.000295544 0)
(-0.000117187 -0.000719755 0)
(-9.30098e-05 -0.00110953 0)
(-6.05627e-05 -0.0014418 0)
(-2.14953e-05 -0.0016978 0)
(2.21846e-05 -0.00186332 0)
(6.82123e-05 -0.00192899 0)
(0.000114174 -0.00189039 0)
(0.000157602 -0.00174822 0)
(0.000196096 -0.00150826 0)
(0.000227436 -0.00118137 0)
(0.000249691 -0.000783372 0)
(0.000261345 -0.000334933 0)
(0.000261415 0.0001387 0)
(0.000249581 0.000607967 0)
(0.000226323 0.00103933 0)
(0.00019304 0.00139564 0)
(0.000152154 0.00163642 0)
(0.000107209 0.00171814 0)
(6.28618e-05 0.00159429 0)
(2.52078e-05 0.00121533 0)
(1.95562e-06 0.000527802 0)
(-2.9532e-07 0.000431034 0)
(-4.37148e-06 0.000971486 0)
(-1.09554e-05 0.00124363 0)
(-1.83899e-05 0.00129439 0)
(-2.52366e-05 0.00116801 0)
(-3.03915e-05 0.000906605 0)
(-3.30546e-05 0.00054997 0)
(-3.27423e-05 0.000135393 0)
(-2.9272e-05 -0.000302718 0)
(-2.27156e-05 -0.000733227 0)
(-1.33413e-05 -0.00112869 0)
(-1.58516e-06 -0.0014657 0)
(1.19872e-05 -0.00172521 0)
(2.67318e-05 -0.00189286 0)
(4.19519e-05 -0.00195914 0)
(5.69092e-05 -0.00191957 0)
(7.08435e-05 -0.00177485 0)
(8.30094e-05 -0.00153083 0)
(9.27024e-05 -0.0011985 0)
(9.92864e-05 -0.000793924 0)
(0.00010223 -0.000338056 0)
(0.000101152 0.000143468 0)
(9.58819e-05 0.000620599 0)
(8.65265e-05 0.00105922 0)
(7.35393e-05 0.0014215 0)
(5.77766e-05 0.00166623 0)
(4.05504e-05 0.00174906 0)
(2.3628e-05 0.00162266 0)
(9.36136e-06 0.00123666 0)
(6.74176e-07 0.000536858 0)
(6.73512e-07 0.000430259 0)
(7.36077e-06 0.000969884 0)
(1.77488e-05 0.00124154 0)
(2.96991e-05 0.00129196 0)
(4.16317e-05 0.00116535 0)
(5.23214e-05 0.000903802 0)
(6.07924e-05 0.000547152 0)
(6.63327e-05 0.000132697 0)
(6.84724e-05 -0.000305143 0)
(6.69894e-05 -0.00073525 0)
(6.19319e-05 -0.00113022 0)
(5.35869e-05 -0.00146669 0)
(4.24402e-05 -0.00172568 0)
(2.9167e-05 -0.00189285 0)
(1.45819e-05 -0.00195872 0)
(-4.32789e-07 -0.00191884 0)
(-1.49843e-05 -0.00177388 0)
(-2.82163e-05 -0.00152969 0)
(-3.93666e-05 -0.00119721 0)
(-4.78198e-05 -0.000792462 0)
(-5.31524e-05 -0.000336355 0)
(-5.51611e-05 0.000145497 0)
(-5.38749e-05 0.000623045 0)
(-4.95534e-05 0.00106213 0)
(-4.26698e-05 0.00142484 0)
(-3.39004e-05 0.00166986 0)
(-2.41175e-05 0.00175271 0)
(-1.43723e-05 0.00162593 0)
(-5.94466e-06 0.00123902 0)
(-5.49986e-07 0.000537781 0)
(1.58309e-06 0.000423517 0)
(1.84058e-05 0.00095462 0)
(4.47861e-05 0.00122177 0)
(7.4998e-05 0.00127099 0)
(0.000104605 0.00114587 0)
(0.000130177 0.000887929 0)
(0.000149053 0.000536454 0)
(0.000159391 0.000128218 0)
(0.000160111 -0.000302871 0)
(0.000150852 -0.00072618 0)
(0.000131962 -0.00111476 0)
(0.000104422 -0.00144567 0)
(6.97217e-05 -0.00170028 0)
(2.97873e-05 -0.00186449 0)
(-1.31375e-05 -0.00192901 0)
(-5.66292e-05 -0.00188947 0)
(-9.82235e-05 -0.00174653 0)
(-0.000135542 -0.00150591 0)
(-0.000166431 -0.00117836 0)
(-0.000189087 -0.000779602 0)
(-0.000202177 -0.000330174 0)
(-0.000204944 0.000144734 0)
(-0.000197279 0.000615537 0)
(-0.00017979 0.00104856 0)
(-0.000153836 0.00140639 0)
(-0.000121557 0.0016482 0)
(-8.59147e-05 0.00173006 0)
(-5.06561e-05 0.00160502 0)
(-2.0533e-05 0.00122316 0)
(-1.70229e-06 0.000530903 0)
(2.43293e-06 0.000411189 0)
(2.87064e-05 0.000926563 0)
(6.99819e-05 0.00118547 0)
(0.000117176 0.0012327 0)
(0.000163185 0.00111071 0)
(0.000202525 0.000859904 0)
(0.000230969 0.000518496 0)
(0.000245625 0.000122215 0)
(0.000244859 -0.00029603 0)
(0.000228193 -0.000706538 0)
(0.000196254 -0.00108321 0)
(0.00015067 -0.00140385 0)
(9.388e-05 -0.00165046 0)
(2.89785e-05 -0.00180942 0)
(-4.04608e-05 -0.00187173 0)
(-0.000110576 -0.00183316 0)
(-0.000177438 -0.00169437 0)
(-0.000237249 -0.00146088 0)
(-0.000286554 -0.00114306 0)
(-0.00032244 -0.000756108 0)
(-0.000342726 -0.000319889 0)
(-0.000346131 0.000141209 0)
(-0.000332418 0.000598501 0)
(-0.000302512 0.00101929 0)
(-0.000258595 0.00136721 0)
(-0.000204175 0.00160252 0)
(-0.000144171 0.00168243 0)
(-8.48643e-05 0.00156114 0)
(-3.42867e-05 0.00118997 0)
(-2.78461e-06 0.000516599 0)
(3.22462e-06 0.000393672 0)
(3.82343e-05 0.000886649 0)
(9.32355e-05 0.00113386 0)
(0.000156032 0.00117842 0)
(0.000217058 0.00106112 0)
(0.000268951 0.000820747 0)
(0.000306059 0.000493952 0)
(0.000324532 0.000114947 0)
(0.000322241 -0.000284811 0)
(0.000298624 -0.000676972 0)
(0.000254569 -0.00103664 0)
(0.000192294 -0.00134268 0)
(0.000115112 -0.00157796 0)
(2.71968e-05 -0.00172954 0)
(-6.66542e-05 -0.00178886 0)
(-0.000161265 -0.00175189 0)
(-0.000251368 -0.00161925 0)
(-0.000331864 -0.00139618 0)
(-0.000398104 -0.00109255 0)
(-0.000446157 -0.000722804 0)
(-0.00047306 -0.000305855 0)
(-0.000477046 0.000135053 0)
(-0.000457749 0.000572542 0)
(-0.000416379 0.000975354 0)
(-0.000355861 0.00130866 0)
(-0.000280952 0.00153439 0)
(-0.000198368 0.00161142 0)
(-0.000116731 0.00149575 0)
(-4.71342e-05 0.00114051 0)
(-3.81271e-06 0.000495309 0)
(3.96083e-06 0.000371371 0)
(4.69784e-05 0.000835846 0)
(0.000114489 0.00106825 0)
(0.000191441 0.00110956 0)
(0.000266021 0.000998424 0)
(0.000329183 0.000771546 0)
(0.000374009 0.000463536 0)
(0.000395795 0.000106666 0)
(0.000391978 -0.000269459 0)
(0.00036194 -0.000638221 0)
(0.000306828 -0.000976261 0)
(0.000229387 -0.00126377 0)
(0.00013371 -0.00148472 0)
(2.49507e-05 -0.00162701 0)
(-9.09895e-05 -0.00168263 0)
(-0.000207752 -0.00164782 0)
(-0.000318868 -0.00152315 0)
(-0.000418072 -0.00131351 0)
(-0.000499645 -0.00102813 0)
(-0.000558736 -0.000680513 0)
(-0.000591671 -0.00028836 0)
(-0.00059624 0.000126536 0)
(-0.000571946 0.000538469 0)
(-0.000520242 0.000918033 0)
(-0.000444705 0.00123241 0)
(-0.000351205 0.00144566 0)
(-0.00024807 0.00151892 0)
(-0.000146043 0.00141052 0)
(-5.90127e-05 0.00107602 0)
(-4.79033e-06 0.000467559 0)
(4.64492e-06 0.000344687 0)
(5.49297e-05 0.000775142 0)
(0.000133687 0.000989996 0)
(0.000223283 0.00102759 0)
(0.000309887 0.000924022 0)
(0.000382971 0.000713439 0)
(0.000434531 0.000427992 0)
(0.000459137 9.76169e-05 0)
(0.000453841 -0.000250276 0)
(0.000417994 -0.000591125 0)
(0.000353 -0.000903413 0)
(0.000262077 -0.0011689 0)
(0.000149999 -0.00137285 0)
(2.27699e-05 -0.00150416 0)
(-0.00011273 -0.00155546 0)
(-0.000249101 -0.00152331 0)
(-0.000378823 -0.00140823 0)
(-0.000494608 -0.00121471 0)
(-0.000589798 -0.000951192 0)
(-0.000658732 -0.000630083 0)
(-0.000697108 -0.000267658 0)
(-0.00070231 0.000116021 0)
(-0.000673717 0.000497237 0)
(-0.000612972 0.000848805 0)
(-0.000524209 0.00114033 0)
(-0.000414252 0.00133844 0)
(-0.000292837 0.00140704 0)
(-0.000172574 0.00130732 0)
(-6.98311e-05 0.000997841 0)
(-5.69257e-06 0.000433906 0)
(5.28055e-06 0.000314025 0)
(6.20633e-05 0.000705562 0)
(0.000150726 0.000900507 0)
(0.000251355 0.000934085 0)
(0.000348363 0.000839381 0)
(0.000429946 0.000647609 0)
(0.000487205 0.000388077 0)
(0.000514135 8.80239e-05 0)
(0.00050747 -0.000227639 0)
(0.000466532 -0.000536659 0)
(0.000392964 -0.000819613 0)
(0.000290413 -0.00106006 0)
(0.000164234 -0.00124471 0)
(2.115e-05 -0.00136358 0)
(-0.000131138 -0.00141004 0)
(-0.000284344 -0.00138099 0)
(-0.000430056 -0.0012769 0)
(-0.000560118 -0.0011018 0)
(-0.000667074 -0.000863272 0)
(-0.000744573 -0.000572469 0)
(-0.000787769 -0.00024405 0)
(-0.000793694 0.000103879 0)
(-0.0007616 0.000449867 0)
(-0.000693271 0.000769263 0)
(-0.00059329 0.00103444 0)
(-0.000469268 0.00121502 0)
(-0.000332116 0.00127805 0)
(-0.000196014 0.00118814 0)
(-7.94706e-05 0.000907397 0)
(-6.5031e-06 0.00039486 0)
(5.86862e-06 0.00027981 0)
(6.83071e-05 0.000628208 0)
(0.000165386 0.000801319 0)
(0.000275254 0.000830729 0)
(0.000380885 0.000746076 0)
(0.000469434 0.000575296 0)
(0.00053129 0.000344545 0)
(0.000560023 7.80679e-05 0)
(0.000552157 -0.000202004 0)
(0.000506985 -0.000475935 0)
(0.000426342 -0.000726573 0)
(0.000314242 -0.00093945 0)
(0.000176527 -0.00110289 0)
(2.04989e-05 -0.0012081 0)
(-0.000145487 -0.00124928 0)
(-0.000312441 -0.0012237 0)
(-0.000471235 -0.00113176 0)
(-0.000613019 -0.000976986 0)
(-0.000729691 -0.000766035 0)
(-0.00081434 -0.000508688 0)
(-0.000861672 -0.000217838 0)
(-0.00086842 9.05522e-05 0)
(-0.000833715 0.000397519 0)
(-0.000759434 0.000681202 0)
(-0.000650492 0.000917036 0)
(-0.000515107 0.00107795 0)
(-0.000365103 0.00113456 0)
(-0.000215899 0.00105526 0)
(-8.77849e-05 0.00080628 0)
(-7.25131e-06 0.000350997 0)
(6.39923e-06 0.000242527 0)
(7.34895e-05 0.000544338 0)
(0.000177227 0.000694162 0)
(0.000294231 0.00071941 0)
(0.000406429 0.000645858 0)
(0.000500223 0.000497862 0)
(0.000565477 0.000298192 0)
(0.000595472 6.78934e-05 0)
(0.000586625 -0.000173909 0)
(0.000538242 -0.000410188 0)
(0.000452292 -0.000626192 0)
(0.000333058 -0.000809534 0)
(0.000186755 -0.000950251 0)
(2.11121e-05 -0.00104086 0)
(-0.00015504 -0.00107639 0)
(-0.000332209 -0.00105454 0)
(-0.000500755 -0.000975626 0)
(-0.000651327 -0.000842645 0)
(-0.000775355 -0.000661253 0)
(-0.000865514 -0.000439791 0)
(-0.00091617 -0.000189272 0)
(-0.000923821 7.66225e-05 0)
(-0.000887485 0.000341584 0)
(-0.00080908 0.00058674 0)
(-0.000693737 0.00079081 0)
(-0.000550083 0.000930287 0)
(-0.000390574 0.000979633 0)
(-0.0002315 0.000911426 0)
(-9.45099e-05 0.000696433 0)
(-7.94167e-06 0.000303122 0)
(6.84106e-06 0.000202777 0)
(7.72636e-05 0.000455502 0)
(0.000185453 0.000581118 0)
(0.000307022 0.000602351 0)
(0.000423309 0.000540766 0)
(0.000520314 0.000416888 0)
(0.000587605 0.000249939 0)
(0.000618297 5.76284e-05 0)
(0.000608775 -0.000144046 0)
(0.000558408 -0.00034091 0)
(0.000469266 -0.000520717 0)
(0.000345791 -0.000673224 0)
(0.00019441 -0.000790228 0)
(2.31028e-05 -0.000865583 0)
(-0.000159034 -0.000895228 0)
(-0.000342234 -0.00087725 0)
(-0.000516581 -0.000811916 0)
(-0.000672449 -0.000701664 0)
(-0.000801006 -0.000551128 0)
(-0.000894683 -0.000367153 0)
(-0.000947636 -0.000158811 0)
(-0.0009562 6.25884e-05 0)
(-0.000919297 0.000283498 0)
(-0.000838835 0.000488165 0)
(-0.000720033 0.000658745 0)
(-0.000571721 0.000775463 0)
(-0.000406686 0.00081682 0)
(-0.00024169 0.000759818 0)
(-9.91405e-05 0.000580143 0)
(-8.48925e-06 0.000252134 0)
(7.13211e-06 0.000161394 0)
(7.90234e-05 0.000363751 0)
(0.000188747 0.000464872 0)
(0.000311632 0.00048232 0)
(0.000428934 0.000433256 0)
(0.000526646 0.000334234 0)
(0.000594316 0.000200833 0)
(0.000625052 4.73682e-05 0)
(0.00061528 -0.000113325 0)
(0.000564451 -0.000269973 0)
(0.000474704 -0.000412893 0)
(0.00035053 -0.000534016 0)
(0.000198384 -0.000626901 0)
(2.62669e-05 -0.000686745 0)
(-0.000156721 -0.00071038 0)
(-0.000340812 -0.000696308 0)
(-0.000516095 -0.000644732 0)
(-0.000672945 -0.000557542 0)
(-0.000802511 -0.000438345 0)
(-0.000897188 -0.000292486 0)
(-0.000951078 -0.000127081 0)
(-0.000960444 4.89564e-05 0)
(-0.000924133 0.000224885 0)
(-0.000843983 0.00038813 0)
(-0.000725166 0.000524351 0)
(-0.000576495 0.00061758 0)
(-0.000410761 0.000650431 0)
(-0.000244759 0.000604426 0)
(-0.000100895 0.000460438 0)
(-8.80615e-06 0.000199204 0)
(7.16658e-06 0.000119603 0)
(7.78137e-05 0.000271899 0)
(0.000185103 0.000348962 0)
(0.000305071 0.000362861 0)
(0.00041948 0.000326386 0)
(0.000514733 0.000252171 0)
(0.000580685 0.000152151 0)
(0.000610651 3.72442e-05 0)
(0.000601191 -8.28422e-05 0)
(0.000551839 -0.000199687 0)
(0.000464746 -0.000306129 0)
(0.000344315 -0.000396241 0)
(0.000196821 -0.00046531 0)
(3.00018e-05 -0.000509831 0)
(-0.000147359 -0.000527499 0)
(-0.000325845 -0.000517221 0)
(-0.000495901 -0.000479133 0)
(-0.000648238 -0.0004146 0)
(-0.000774299 -0.000326239 0)
(-0.000866701 -0.000217941 0)
(-0.000919687 -9.49149e-05 0)
(-0.000929563 3.62753e-05 0)
(-0.000895125 0.000167657 0)
(-0.000818074 0.000289808 0)
(-0.00070337 0.000391876 0)
(-0.000559553 0.000461671 0)
(-0.000399061 0.000485862 0)
(-0.00023819 0.00045042 0)
(-9.85909e-05 0.000341412 0)
(-8.79707e-06 0.000146141 0)
(6.74363e-06 7.93243e-05 0)
(7.22076e-05 0.00018391 0)
(0.000171693 0.000238113 0)
(0.000283171 0.000248622 0)
(0.000389641 0.000224155 0)
(0.000478346 0.00017366 0)
(0.000539813 0.000105563 0)
(0.000567863 2.74721e-05 0)
(0.000559363 -5.39319e-05 0)
(0.000513952 -0.000132938 0)
(0.000433694 -0.000204757 0)
(0.000322714 -0.000265462 0)
(0.000186827 -0.000311955 0)
(3.31569e-05 -0.000341938 0)
(-0.00013024 -0.000353905 0)
(-0.000294738 -0.000347137 0)
(-0.000451588 -0.000321713 0)
(-0.000592272 -0.000278518 0)
(-0.000708921 -0.000219254 0)
(-0.000794713 -0.00014647 0)
(-0.000844283 -6.35963e-05 0)
(-0.000854136 2.50102e-05 0)
(-0.000823052 0.000114003 0)
(-0.000752499 0.000196979 0)
(-0.000647009 0.000266452 0)
(-0.000514512 0.000313879 0)
(-0.000366641 0.000329815 0)
(-0.000218589 0.000304402 0)
(-9.04509e-05 0.000228402 0)
(-8.17924e-06 9.55148e-05 0)
(5.54883e-06 4.33577e-05 0)
(6.02936e-05 0.000105084 0)
(0.000144942 0.000138323 0)
(0.000240623 0.000145388 0)
(0.000332417 0.000131542 0)
(0.000409045 0.000102384 0)
(0.000462227 6.3092e-05 0)
(0.000486684 1.82009e-05 0)
(0.00047983 -2.84092e-05 0)
(0.000441463 -7.34843e-05 0)
(0.000373436 -0.000114337 0)
(0.000279327 -0.000148793 0)
(0.000164109 -0.00017515 0)
(3.38278e-05 -0.000192154 0)
(-0.000104717 -0.000198987 0)
(-0.000244264 -0.000195255 0)
(-0.000377443 -0.000180991 0)
(-0.00049707 -0.000156673 0)
(-0.000596481 -0.000123222 0)
(-0.000669864 -8.20281e-05 0)
(-0.000712595 -3.4975e-05 0)
(-0.000721592 1.55215e-05 0)
(-0.000695683 6.64588e-05 0)
(-0.000635981 0.000114172 0)
(-0.000546278 0.000154276 0)
(-0.000433392 0.000181634 0)
(-0.000307489 0.000190417 0)
(-0.000181964 0.000174526 0)
(-7.43459e-05 0.000128433 0)
(-6.57011e-06 5.09449e-05 0)
(3.0225e-06 1.63975e-05 0)
(4.01235e-05 4.34491e-05 0)
(0.000101057 5.86662e-05 0)
(0.000171284 6.21987e-05 0)
(0.000239118 5.66694e-05 0)
(0.000295841 4.47657e-05 0)
(0.000335255 2.8833e-05 0)
(0.000353562 1.07962e-05 0)
(0.000349018 -7.77908e-06 0)
(0.000321622 -2.5626e-05 0)
(0.000272827 -4.1721e-05 0)
(0.000205286 -5.52476e-05 0)
(0.000122611 -6.55735e-05 0)
(2.91462e-05 -7.22374e-05 0)
(-7.02573e-05 -7.49407e-05 0)
(-0.000170435 -7.3536e-05 0)
(-0.000266146 -6.8031e-05 0)
(-0.000352267 -5.85966e-05 0)
(-0.000424025 -4.55688e-05 0)
(-0.00047722 -2.94578e-05 0)
(-0.000508458 -1.09613e-05 0)
(-0.000515404 9.0156e-06 0)
(-0.000497056 2.93255e-05 0)
(-0.00045405 4.85249e-05 0)
(-0.000389003 6.48194e-05 0)
(-0.000306854 7.6002e-05 0)
(-0.00021519 7.94156e-05 0)
(-0.000124454 7.21516e-05 0)
(-4.83221e-05 5.14165e-05 0)
(-3.39677e-06 1.81302e-05 0)
(-3.17207e-07 1.7856e-06 0)
(1.27305e-05 5.51796e-06 0)
(3.85786e-05 7.38653e-06 0)
(6.93665e-05 7.79798e-06 0)
(9.92745e-05 7.25759e-06 0)
(0.00012424 6.14166e-06 0)
(0.000141565 4.7268e-06 0)
(0.000149711 3.19691e-06 0)
(0.000148059 1.67769e-06 0)
(0.00013672 2.57572e-07 0)
(0.000116393 -9.9762e-07 0)
(8.82408e-05 -2.03772e-06 0)
(5.37987e-05 -2.8251e-06 0)
(1.4879e-05 -3.33305e-06 0)
(-2.65144e-05 -3.54568e-06 0)
(-6.82612e-05 -3.45377e-06 0)
(-0.000108206 -3.05567e-06 0)
(-0.000144237 -2.36025e-06 0)
(-0.000174371 -1.38581e-06 0)
(-0.000196842 -1.61583e-07 0)
(-0.000210184 1.27164e-06 0)
(-0.000213342 2.85941e-06 0)
(-0.000205781 4.5272e-06 0)
(-0.000187633 6.16853e-06 0)
(-0.000159872 7.63204e-06 0)
(-0.000124524 8.69779e-06 0)
(-8.48903e-05 9.04749e-06 0)
(-4.5908e-05 8.27614e-06 0)
(-1.44105e-05 5.80514e-06 0)
(6.98932e-07 1.41682e-06 0)
)
;

boundaryField
{
    floor
    {
        type            noSlip;
    }
    ceiling
    {
        type            noSlip;
    }
    fixedWalls
    {
        type            noSlip;
    }
    frontAndBack
    {
        type            empty;
    }
}


// ************************************************************************* //
