/*--------------------------------*- C++ -*----------------------------------*\
| =========                 |                                                 |
| \\      /  F ield         | OpenFOAM: The Open Source CFD Toolbox           |
|  \\    /   O peration     | Version:  2412                                  |
|   \\  /    A nd           | Website:  www.openfoam.com                      |
|    \\/     M anipulation  |                                                 |
\*---------------------------------------------------------------------------*/
FoamFile
{
    version     2.0;
    format      ascii;
    arch        "LSB;label=32;scalar=64";
    class       volScalarField;
    location    "200";
    object      p;
}
// * * * * * * * * * * * * * * * * * * * * * * * * * * * * * * * * * * * * * //

dimensions      [0 2 -2 0 0 0 0];

internalField   nonuniform List<scalar> 
40000
(
0
-2.68777e-06
-1.8868e-06
2.83753e-06
1.09286e-05
2.1594e-05
3.39616e-05
4.72339e-05
6.07686e-05
7.40732e-05
8.6798e-05
9.87123e-05
0.000109688
0.000119674
0.000128665
0.000136707
0.000143856
0.000150191
0.000155793
0.000160738
0.000165104
0.000168961
0.000172373
0.000175396
0.000178084
0.000180478
0.000182616
0.000184527
0.000186244
0.000187792
0.000189192
0.00019046
0.000191614
0.000192665
0.000193624
0.000194504
0.000195309
0.000196054
0.000196735
0.000197373
0.000197957
0.000198501
0.000199011
0.000199478
0.000199914
0.000200325
0.000200705
0.000201058
0.000201392
0.000201706
0.000202
0.000202276
0.000202535
0.000202779
0.000203008
0.000203223
0.000203427
0.000203621
0.000203804
0.000203977
0.000204141
0.000204294
0.000204438
0.000204574
0.000204705
0.000204829
0.000204947
0.000205058
0.000205163
0.000205263
0.000205357
0.000205446
0.000205529
0.000205608
0.000205683
0.000205754
0.000205822
0.000205884
0.000205943
0.000205996
0.000206047
0.000206096
0.000206141
0.000206183
0.000206221
0.000206256
0.000206288
0.000206317
0.000206344
0.000206368
0.000206388
0.000206406
0.00020642
0.000206433
0.000206443
0.000206451
0.000206454
0.000206455
0.000206453
0.000206449
0.000206444
0.000206435
0.000206423
0.000206408
0.000206392
0.000206374
0.000206353
0.000206329
0.000206302
0.000206272
0.00020624
0.000206205
0.000206168
0.000206129
0.000206087
0.000206042
0.000205994
0.000205942
0.000205888
0.00020583
0.000205769
0.000205704
0.000205635
0.000205562
0.000205486
0.000205405
0.000205319
0.000205227
0.000205129
0.000205026
0.000204918
0.000204806
0.000204687
0.00020456
0.000204425
0.000204284
0.000204134
0.000203976
0.000203808
0.000203631
0.000203445
0.00020325
0.000203047
0.00020283
0.000202596
0.000202346
0.000202082
0.000201805
0.000201514
0.000201206
0.000200878
0.000200528
0.000200154
0.000199751
0.00019932
0.000198859
0.000198366
0.000197837
0.000197269
0.000196658
0.000195999
0.000195288
0.00019452
0.000193686
0.000192781
0.000191795
0.000190717
0.000189535
0.000188237
0.00018681
0.000185237
0.000183497
0.000181565
0.000179414
0.000177015
0.000174328
0.000171313
0.000167918
0.000164086
0.000159758
0.000154863
0.000149324
0.00014306
0.00013598
0.000128001
0.000119041
0.000109038
9.79541e-05
8.57931e-05
7.2624e-05
5.85979e-05
4.39768e-05
2.91571e-05
1.46895e-05
1.28974e-06
-1.01824e-05
-1.87795e-05
-2.3669e-05
-2.43105e-05
-2.12013e-05
-0.000382483
-0.000385645
-0.000385122
-0.00038094
-0.000373836
-0.000364456
-0.000353506
-0.000341634
-0.000329387
-0.000317198
-0.000305394
-0.000294201
-0.000283762
-0.000274153
-0.000265401
-0.000257492
-0.000250392
-0.000244049
-0.000238399
-0.000233375
-0.000228915
-0.000224958
-0.000221441
-0.000218319
-0.00021554
-0.000213062
-0.000210847
-0.000208866
-0.000207087
-0.000205485
-0.00020404
-0.000202728
-0.000201538
-0.000200455
-0.000199467
-0.000198563
-0.000197735
-0.000196974
-0.000196271
-0.000195623
-0.000195024
-0.000194466
-0.000193949
-0.00019347
-0.000193026
-0.000192612
-0.000192227
-0.000191866
-0.000191528
-0.00019121
-0.000190912
-0.00019063
-0.000190367
-0.00019012
-0.000189888
-0.00018967
-0.000189465
-0.000189271
-0.000189086
-0.00018891
-0.000188745
-0.000188589
-0.000188444
-0.000188306
-0.000188175
-0.00018805
-0.000187931
-0.000187818
-0.000187712
-0.000187612
-0.000187518
-0.000187429
-0.000187344
-0.000187264
-0.000187188
-0.000187117
-0.00018705
-0.000186987
-0.000186929
-0.000186874
-0.000186823
-0.000186775
-0.000186729
-0.000186686
-0.000186648
-0.000186613
-0.000186582
-0.000186554
-0.000186527
-0.000186502
-0.00018648
-0.000186462
-0.000186448
-0.000186437
-0.000186428
-0.00018642
-0.000186415
-0.000186413
-0.000186415
-0.000186418
-0.000186425
-0.000186433
-0.000186445
-0.000186459
-0.000186475
-0.000186494
-0.000186516
-0.00018654
-0.000186566
-0.000186595
-0.000186627
-0.000186662
-0.0001867
-0.00018674
-0.000186782
-0.000186827
-0.000186875
-0.000186927
-0.000186982
-0.000187042
-0.000187104
-0.000187168
-0.000187237
-0.000187309
-0.000187387
-0.00018747
-0.000187557
-0.000187649
-0.000187747
-0.000187851
-0.000187959
-0.000188073
-0.000188193
-0.000188321
-0.000188457
-0.0001886
-0.000188752
-0.00018891
-0.000189076
-0.000189253
-0.000189442
-0.000189643
-0.000189854
-0.000190073
-0.000190305
-0.000190551
-0.000190815
-0.000191095
-0.000191394
-0.000191712
-0.000192049
-0.000192406
-0.000192785
-0.000193189
-0.000193624
-0.00019409
-0.000194591
-0.00019513
-0.00019571
-0.000196336
-0.000197011
-0.00019774
-0.000198529
-0.000199385
-0.000200316
-0.00020133
-0.000202439
-0.000203655
-0.000204993
-0.000206468
-0.000208096
-0.000209897
-0.000211896
-0.000214123
-0.00021661
-0.000219393
-0.000222514
-0.000226018
-0.000229961
-0.0002344
-0.000239397
-0.00024502
-0.000251337
-0.000258421
-0.000266336
-0.000275138
-0.000284866
-0.000295524
-0.00030708
-0.000319443
-0.000332446
-0.000345833
-0.00035924
-0.000372183
-0.000384061
-0.000394169
-0.000401736
-0.000406085
-0.000406485
-0.000402935
-0.00115094
-0.00115493
-0.00115507
-0.00115164
-0.00114555
-0.00113738
-0.00112773
-0.00111717
-0.00110616
-0.00109509
-0.00108424
-0.00107386
-0.00106407
-0.00105497
-0.0010466
-0.00103898
-0.00103208
-0.00102586
-0.00102029
-0.00101531
-0.00101086
-0.0010069
-0.00100336
-0.00100021
-0.000997401
-0.00099489
-0.000992645
-0.000990631
-0.000988821
-0.000987192
-0.00098572
-0.000984387
-0.000983177
-0.000982078
-0.000981071
-0.000980157
-0.000979315
-0.000978546
-0.000977833
-0.000977177
-0.000976569
-0.000976003
-0.000975483
-0.000974999
-0.000974548
-0.000974129
-0.00097374
-0.000973375
-0.000973035
-0.000972716
-0.000972415
-0.000972132
-0.000971867
-0.000971618
-0.000971384
-0.000971163
-0.000970956
-0.00097076
-0.000970575
-0.0009704
-0.000970234
-0.000970077
-0.000969929
-0.00096979
-0.000969658
-0.000969534
-0.000969415
-0.000969302
-0.000969194
-0.000969094
-0.000968999
-0.00096891
-0.000968826
-0.000968745
-0.000968669
-0.000968597
-0.00096853
-0.000968468
-0.000968409
-0.000968354
-0.000968303
-0.000968255
-0.00096821
-0.000968168
-0.000968129
-0.000968094
-0.000968062
-0.000968034
-0.000968008
-0.000967984
-0.000967962
-0.000967943
-0.000967928
-0.000967916
-0.000967907
-0.000967901
-0.000967896
-0.000967894
-0.000967894
-0.000967897
-0.000967903
-0.000967913
-0.000967924
-0.000967936
-0.000967952
-0.000967971
-0.000967993
-0.000968017
-0.000968044
-0.000968072
-0.000968104
-0.000968138
-0.000968176
-0.000968217
-0.00096826
-0.000968306
-0.000968354
-0.000968405
-0.000968461
-0.000968521
-0.000968585
-0.00096865
-0.000968719
-0.000968791
-0.000968869
-0.000968952
-0.000969041
-0.000969134
-0.000969232
-0.000969335
-0.000969443
-0.000969558
-0.000969679
-0.000969807
-0.000969942
-0.000970086
-0.000970239
-0.0009704
-0.000970568
-0.000970744
-0.00097093
-0.000971129
-0.000971343
-0.000971569
-0.000971805
-0.000972054
-0.000972317
-0.000972598
-0.000972896
-0.000973213
-0.000973552
-0.000973915
-0.0009743
-0.00097471
-0.00097515
-0.000975621
-0.000976127
-0.000976671
-0.000977258
-0.000977891
-0.000978573
-0.000979311
-0.00098011
-0.000980977
-0.000981922
-0.000982955
-0.000984083
-0.00098532
-0.00098668
-0.000988179
-0.000989836
-0.000991669
-0.000993702
-0.000995964
-0.000998486
-0.0010013
-0.00100446
-0.001008
-0.00101196
-0.0010164
-0.00102138
-0.00102696
-0.00103319
-0.00104012
-0.00104781
-0.0010563
-0.00106559
-0.00107568
-0.00108652
-0.00109799
-0.00110994
-0.00112211
-0.00113416
-0.00114569
-0.00115616
-0.00116499
-0.00117151
-0.0011751
-0.00117482
-0.00117038
-0.00229898
-0.00230361
-0.00230441
-0.00230174
-0.00229661
-0.00228955
-0.00228111
-0.00227178
-0.00226196
-0.00225199
-0.00224215
-0.00223264
-0.0022236
-0.00221514
-0.00220729
-0.00220008
-0.00219351
-0.00218755
-0.00218218
-0.00217735
-0.00217301
-0.00216912
-0.00216565
-0.00216254
-0.00215975
-0.00215726
-0.00215502
-0.00215301
-0.00215121
-0.00214958
-0.0021481
-0.00214677
-0.00214555
-0.00214445
-0.00214344
-0.00214252
-0.00214167
-0.0021409
-0.00214019
-0.00213953
-0.00213892
-0.00213835
-0.00213783
-0.00213734
-0.00213689
-0.00213647
-0.00213608
-0.00213571
-0.00213537
-0.00213505
-0.00213475
-0.00213447
-0.0021342
-0.00213395
-0.00213372
-0.0021335
-0.00213329
-0.00213309
-0.0021329
-0.00213273
-0.00213256
-0.00213241
-0.00213226
-0.00213212
-0.00213199
-0.00213186
-0.00213174
-0.00213163
-0.00213152
-0.00213142
-0.00213133
-0.00213124
-0.00213115
-0.00213107
-0.002131
-0.00213092
-0.00213086
-0.0021308
-0.00213074
-0.00213068
-0.00213063
-0.00213058
-0.00213054
-0.0021305
-0.00213046
-0.00213042
-0.00213039
-0.00213036
-0.00213034
-0.00213031
-0.00213029
-0.00213028
-0.00213026
-0.00213025
-0.00213024
-0.00213023
-0.00213023
-0.00213022
-0.00213022
-0.00213023
-0.00213023
-0.00213024
-0.00213025
-0.00213026
-0.00213028
-0.0021303
-0.00213032
-0.00213034
-0.00213037
-0.0021304
-0.00213043
-0.00213046
-0.0021305
-0.00213054
-0.00213058
-0.00213063
-0.00213068
-0.00213073
-0.00213079
-0.00213085
-0.00213091
-0.00213098
-0.00213105
-0.00213112
-0.0021312
-0.00213128
-0.00213137
-0.00213147
-0.00213156
-0.00213167
-0.00213177
-0.00213189
-0.00213201
-0.00213214
-0.00213227
-0.00213242
-0.00213257
-0.00213273
-0.0021329
-0.00213308
-0.00213326
-0.00213346
-0.00213367
-0.0021339
-0.00213413
-0.00213439
-0.00213465
-0.00213493
-0.00213523
-0.00213555
-0.00213589
-0.00213625
-0.00213664
-0.00213705
-0.00213749
-0.00213796
-0.00213847
-0.00213902
-0.00213961
-0.00214024
-0.00214093
-0.00214167
-0.00214247
-0.00214334
-0.00214429
-0.00214533
-0.00214646
-0.0021477
-0.00214907
-0.00215057
-0.00215223
-0.00215406
-0.00215609
-0.00215835
-0.00216086
-0.00216366
-0.00216679
-0.00217028
-0.00217418
-0.00217853
-0.00218339
-0.0021888
-0.0021948
-0.00220145
-0.00220878
-0.0022168
-0.00222552
-0.00223492
-0.00224492
-0.00225543
-0.00226628
-0.00227724
-0.00228802
-0.00229822
-0.00230741
-0.00231506
-0.00232058
-0.00232339
-0.00232242
-0.00231727
-0.00381582
-0.00382063
-0.00382186
-0.00381987
-0.00381564
-0.00380964
-0.00380236
-0.00379423
-0.0037856
-0.00377677
-0.00376798
-0.00375942
-0.00375122
-0.00374349
-0.00373626
-0.00372958
-0.00372344
-0.00371784
-0.00371276
-0.00370816
-0.00370401
-0.00370028
-0.00369692
-0.00369391
-0.0036912
-0.00368877
-0.00368658
-0.0036846
-0.00368283
-0.00368121
-0.00367976
-0.00367844
-0.00367724
-0.00367614
-0.00367515
-0.00367423
-0.00367339
-0.00367262
-0.00367191
-0.00367125
-0.00367064
-0.00367008
-0.00366956
-0.00366907
-0.00366862
-0.00366821
-0.00366782
-0.00366745
-0.00366711
-0.00366679
-0.00366649
-0.00366621
-0.00366594
-0.00366569
-0.00366546
-0.00366524
-0.00366503
-0.00366483
-0.00366465
-0.00366447
-0.00366431
-0.00366415
-0.003664
-0.00366386
-0.00366373
-0.00366361
-0.00366349
-0.00366337
-0.00366327
-0.00366317
-0.00366307
-0.00366298
-0.0036629
-0.00366282
-0.00366274
-0.00366267
-0.00366261
-0.00366254
-0.00366249
-0.00366243
-0.00366238
-0.00366233
-0.00366229
-0.00366225
-0.00366221
-0.00366218
-0.00366214
-0.00366211
-0.00366209
-0.00366206
-0.00366204
-0.00366203
-0.00366201
-0.003662
-0.00366199
-0.00366198
-0.00366198
-0.00366197
-0.00366197
-0.00366198
-0.00366198
-0.00366199
-0.003662
-0.00366201
-0.00366203
-0.00366204
-0.00366206
-0.00366209
-0.00366211
-0.00366214
-0.00366217
-0.00366221
-0.00366225
-0.00366229
-0.00366233
-0.00366238
-0.00366243
-0.00366248
-0.00366254
-0.0036626
-0.00366266
-0.00366273
-0.0036628
-0.00366287
-0.00366295
-0.00366303
-0.00366312
-0.00366322
-0.00366331
-0.00366342
-0.00366352
-0.00366364
-0.00366376
-0.00366389
-0.00366402
-0.00366416
-0.00366431
-0.00366447
-0.00366464
-0.00366482
-0.00366501
-0.00366521
-0.00366542
-0.00366564
-0.00366587
-0.00366612
-0.00366639
-0.00366667
-0.00366697
-0.00366729
-0.00366763
-0.00366799
-0.00366837
-0.00366878
-0.00366922
-0.0036697
-0.0036702
-0.00367075
-0.00367134
-0.00367197
-0.00367265
-0.00367339
-0.00367419
-0.00367506
-0.003676
-0.00367703
-0.00367815
-0.00367939
-0.00368074
-0.00368222
-0.00368386
-0.00368567
-0.00368767
-0.00368988
-0.00369234
-0.00369508
-0.00369812
-0.0037015
-0.00370527
-0.00370945
-0.0037141
-0.00371924
-0.00372492
-0.00373117
-0.00373802
-0.00374546
-0.0037535
-0.0037621
-0.00377118
-0.00378066
-0.00379036
-0.00380009
-0.00380958
-0.00381849
-0.00382644
-0.00383296
-0.00383754
-0.00383964
-0.00383823
-0.00383287
-0.00568711
-0.00569169
-0.0056931
-0.00569167
-0.00568825
-0.00568325
-0.00567709
-0.00567014
-0.00566269
-0.005655
-0.0056473
-0.00563974
-0.00563244
-0.00562551
-0.00561898
-0.00561291
-0.00560729
-0.00560213
-0.00559742
-0.00559313
-0.00558924
-0.00558572
-0.00558254
-0.00557967
-0.00557708
-0.00557475
-0.00557264
-0.00557073
-0.00556901
-0.00556744
-0.00556603
-0.00556473
-0.00556356
-0.00556249
-0.00556151
-0.00556061
-0.00555978
-0.00555902
-0.00555832
-0.00555767
-0.00555707
-0.00555651
-0.005556
-0.00555552
-0.00555507
-0.00555466
-0.00555427
-0.00555391
-0.00555357
-0.00555325
-0.00555296
-0.00555268
-0.00555241
-0.00555216
-0.00555193
-0.00555171
-0.00555151
-0.00555131
-0.00555113
-0.00555095
-0.00555079
-0.00555063
-0.00555048
-0.00555035
-0.00555022
-0.00555009
-0.00554997
-0.00554986
-0.00554975
-0.00554965
-0.00554956
-0.00554947
-0.00554939
-0.00554931
-0.00554923
-0.00554916
-0.0055491
-0.00554903
-0.00554898
-0.00554892
-0.00554887
-0.00554882
-0.00554878
-0.00554874
-0.0055487
-0.00554867
-0.00554864
-0.00554861
-0.00554858
-0.00554856
-0.00554854
-0.00554852
-0.00554851
-0.00554849
-0.00554848
-0.00554848
-0.00554847
-0.00554847
-0.00554847
-0.00554847
-0.00554847
-0.00554848
-0.00554849
-0.0055485
-0.00554852
-0.00554853
-0.00554855
-0.00554858
-0.0055486
-0.00554863
-0.00554866
-0.0055487
-0.00554873
-0.00554878
-0.00554882
-0.00554886
-0.00554891
-0.00554897
-0.00554903
-0.00554909
-0.00554915
-0.00554922
-0.00554929
-0.00554936
-0.00554944
-0.00554952
-0.00554961
-0.00554971
-0.0055498
-0.0055499
-0.00555001
-0.00555012
-0.00555024
-0.00555037
-0.00555051
-0.00555065
-0.0055508
-0.00555096
-0.00555112
-0.0055513
-0.00555148
-0.00555168
-0.00555189
-0.00555211
-0.00555235
-0.0055526
-0.00555286
-0.00555314
-0.00555344
-0.00555375
-0.00555409
-0.00555445
-0.00555483
-0.00555524
-0.00555567
-0.00555614
-0.00555664
-0.00555718
-0.00555776
-0.00555839
-0.00555906
-0.00555979
-0.00556058
-0.00556144
-0.00556236
-0.00556338
-0.00556448
-0.00556569
-0.00556701
-0.00556846
-0.00557006
-0.00557182
-0.00557375
-0.0055759
-0.00557827
-0.00558089
-0.0055838
-0.00558702
-0.00559059
-0.00559454
-0.00559889
-0.00560369
-0.00560896
-0.00561473
-0.005621
-0.00562777
-0.00563504
-0.00564276
-0.00565086
-0.00565924
-0.00566777
-0.00567625
-0.00568446
-0.00569212
-0.00569888
-0.00570434
-0.00570806
-0.00570958
-0.00570798
-0.00570287
-0.00789551
-0.00789954
-0.00790093
-0.00789993
-0.00789722
-0.00789316
-0.00788807
-0.00788225
-0.00787597
-0.00786944
-0.00786284
-0.0078563
-0.00784995
-0.00784387
-0.0078381
-0.0078327
-0.00782766
-0.00782301
-0.00781873
-0.00781481
-0.00781123
-0.00780797
-0.00780502
-0.00780233
-0.0077999
-0.0077977
-0.0077957
-0.00779388
-0.00779223
-0.00779074
-0.00778937
-0.00778813
-0.00778699
-0.00778595
-0.007785
-0.00778413
-0.00778332
-0.00778258
-0.00778189
-0.00778126
-0.00778067
-0.00778013
-0.00777962
-0.00777915
-0.00777871
-0.0077783
-0.00777792
-0.00777756
-0.00777723
-0.00777692
-0.00777662
-0.00777635
-0.00777608
-0.00777584
-0.00777561
-0.00777539
-0.00777519
-0.007775
-0.00777481
-0.00777464
-0.00777448
-0.00777432
-0.00777418
-0.00777404
-0.00777391
-0.00777379
-0.00777367
-0.00777356
-0.00777345
-0.00777335
-0.00777326
-0.00777317
-0.00777309
-0.00777301
-0.00777293
-0.00777286
-0.0077728
-0.00777274
-0.00777268
-0.00777263
-0.00777258
-0.00777253
-0.00777249
-0.00777245
-0.00777241
-0.00777237
-0.00777234
-0.00777231
-0.00777229
-0.00777227
-0.00777225
-0.00777223
-0.00777221
-0.0077722
-0.00777219
-0.00777218
-0.00777218
-0.00777217
-0.00777217
-0.00777218
-0.00777218
-0.00777219
-0.0077722
-0.00777221
-0.00777222
-0.00777224
-0.00777226
-0.00777228
-0.00777231
-0.00777234
-0.00777237
-0.0077724
-0.00777244
-0.00777248
-0.00777252
-0.00777257
-0.00777262
-0.00777267
-0.00777273
-0.00777279
-0.00777285
-0.00777292
-0.00777299
-0.00777306
-0.00777314
-0.00777323
-0.00777331
-0.00777341
-0.0077735
-0.0077736
-0.00777371
-0.00777382
-0.00777394
-0.00777407
-0.0077742
-0.00777434
-0.00777449
-0.00777465
-0.00777481
-0.00777498
-0.00777517
-0.00777536
-0.00777557
-0.00777579
-0.00777602
-0.00777627
-0.00777653
-0.00777681
-0.0077771
-0.00777741
-0.00777775
-0.0077781
-0.00777848
-0.00777888
-0.00777931
-0.00777977
-0.00778026
-0.00778079
-0.00778136
-0.00778198
-0.00778264
-0.00778335
-0.00778412
-0.00778496
-0.00778586
-0.00778685
-0.00778792
-0.00778909
-0.00779037
-0.00779177
-0.00779331
-0.00779499
-0.00779684
-0.00779888
-0.00780112
-0.0078036
-0.00780634
-0.00780935
-0.00781267
-0.00781632
-0.00782033
-0.00782473
-0.00782952
-0.00783472
-0.00784035
-0.00784639
-0.00785282
-0.0078596
-0.00786667
-0.00787394
-0.00788127
-0.00788851
-0.00789546
-0.00790189
-0.0079075
-0.00791198
-0.00791494
-0.00791601
-0.00791444
-0.00790992
-0.0104212
-0.0104245
-0.0104257
-0.0104251
-0.010423
-0.0104198
-0.0104157
-0.010411
-0.0104059
-0.0104005
-0.010395
-0.0103895
-0.0103841
-0.0103789
-0.0103739
-0.0103692
-0.0103648
-0.0103607
-0.0103569
-0.0103534
-0.0103502
-0.0103472
-0.0103445
-0.010342
-0.0103398
-0.0103378
-0.0103359
-0.0103342
-0.0103326
-0.0103312
-0.0103299
-0.0103287
-0.0103277
-0.0103267
-0.0103257
-0.0103249
-0.0103241
-0.0103234
-0.0103227
-0.0103221
-0.0103216
-0.010321
-0.0103205
-0.0103201
-0.0103196
-0.0103192
-0.0103189
-0.0103185
-0.0103182
-0.0103179
-0.0103176
-0.0103173
-0.0103171
-0.0103168
-0.0103166
-0.0103164
-0.0103162
-0.010316
-0.0103158
-0.0103157
-0.0103155
-0.0103153
-0.0103152
-0.0103151
-0.0103149
-0.0103148
-0.0103147
-0.0103146
-0.0103145
-0.0103144
-0.0103143
-0.0103142
-0.0103141
-0.010314
-0.010314
-0.0103139
-0.0103138
-0.0103138
-0.0103137
-0.0103137
-0.0103136
-0.0103136
-0.0103135
-0.0103135
-0.0103134
-0.0103134
-0.0103134
-0.0103133
-0.0103133
-0.0103133
-0.0103133
-0.0103133
-0.0103133
-0.0103132
-0.0103132
-0.0103132
-0.0103132
-0.0103132
-0.0103132
-0.0103132
-0.0103132
-0.0103132
-0.0103132
-0.0103132
-0.0103133
-0.0103133
-0.0103133
-0.0103133
-0.0103133
-0.0103134
-0.0103134
-0.0103134
-0.0103135
-0.0103135
-0.0103136
-0.0103136
-0.0103137
-0.0103137
-0.0103138
-0.0103138
-0.0103139
-0.010314
-0.010314
-0.0103141
-0.0103142
-0.0103143
-0.0103143
-0.0103144
-0.0103145
-0.0103146
-0.0103147
-0.0103148
-0.010315
-0.0103151
-0.0103152
-0.0103154
-0.0103155
-0.0103157
-0.0103158
-0.010316
-0.0103162
-0.0103164
-0.0103166
-0.0103168
-0.010317
-0.0103173
-0.0103175
-0.0103178
-0.0103181
-0.0103184
-0.0103187
-0.0103191
-0.0103194
-0.0103198
-0.0103202
-0.0103207
-0.0103212
-0.0103217
-0.0103223
-0.0103228
-0.0103235
-0.0103242
-0.0103249
-0.0103257
-0.0103266
-0.0103276
-0.0103286
-0.0103297
-0.0103309
-0.0103323
-0.0103337
-0.0103353
-0.0103371
-0.010339
-0.0103411
-0.0103434
-0.0103459
-0.0103487
-0.0103517
-0.010355
-0.0103586
-0.0103626
-0.0103668
-0.0103714
-0.0103764
-0.0103816
-0.0103872
-0.010393
-0.010399
-0.0104051
-0.0104113
-0.0104173
-0.010423
-0.0104282
-0.0104328
-0.0104363
-0.0104386
-0.0104394
-0.010438
-0.0104343
-0.0132428
-0.0132452
-0.0132461
-0.0132457
-0.0132442
-0.0132418
-0.0132387
-0.013235
-0.013231
-0.0132267
-0.0132222
-0.0132178
-0.0132133
-0.013209
-0.0132049
-0.0132009
-0.0131971
-0.0131936
-0.0131903
-0.0131872
-0.0131844
-0.0131818
-0.0131794
-0.0131771
-0.0131751
-0.0131732
-0.0131715
-0.01317
-0.0131685
-0.0131672
-0.013166
-0.0131649
-0.0131639
-0.0131629
-0.013162
-0.0131612
-0.0131605
-0.0131598
-0.0131592
-0.0131586
-0.013158
-0.0131575
-0.013157
-0.0131566
-0.0131562
-0.0131558
-0.0131554
-0.0131551
-0.0131548
-0.0131545
-0.0131542
-0.0131539
-0.0131537
-0.0131534
-0.0131532
-0.013153
-0.0131528
-0.0131526
-0.0131524
-0.0131523
-0.0131521
-0.013152
-0.0131518
-0.0131517
-0.0131516
-0.0131514
-0.0131513
-0.0131512
-0.0131511
-0.013151
-0.0131509
-0.0131508
-0.0131508
-0.0131507
-0.0131506
-0.0131505
-0.0131505
-0.0131504
-0.0131504
-0.0131503
-0.0131503
-0.0131502
-0.0131502
-0.0131501
-0.0131501
-0.0131501
-0.01315
-0.01315
-0.01315
-0.01315
-0.0131499
-0.0131499
-0.0131499
-0.0131499
-0.0131499
-0.0131499
-0.0131499
-0.0131499
-0.0131499
-0.0131499
-0.0131499
-0.0131499
-0.0131499
-0.0131499
-0.0131499
-0.0131499
-0.0131499
-0.01315
-0.01315
-0.01315
-0.0131501
-0.0131501
-0.0131501
-0.0131502
-0.0131502
-0.0131503
-0.0131503
-0.0131504
-0.0131504
-0.0131505
-0.0131505
-0.0131506
-0.0131507
-0.0131507
-0.0131508
-0.0131509
-0.013151
-0.0131511
-0.0131512
-0.0131513
-0.0131514
-0.0131515
-0.0131516
-0.0131517
-0.0131519
-0.013152
-0.0131521
-0.0131523
-0.0131524
-0.0131526
-0.0131528
-0.013153
-0.0131532
-0.0131534
-0.0131536
-0.0131539
-0.0131541
-0.0131544
-0.0131547
-0.013155
-0.0131553
-0.0131556
-0.013156
-0.0131564
-0.0131568
-0.0131572
-0.0131577
-0.0131582
-0.0131587
-0.0131593
-0.0131599
-0.0131606
-0.0131613
-0.0131621
-0.0131629
-0.0131638
-0.0131648
-0.0131659
-0.013167
-0.0131683
-0.0131696
-0.0131711
-0.0131727
-0.0131745
-0.0131764
-0.0131785
-0.0131808
-0.0131833
-0.013186
-0.013189
-0.0131921
-0.0131956
-0.0131993
-0.0132033
-0.0132075
-0.0132119
-0.0132166
-0.0132214
-0.0132264
-0.0132314
-0.0132364
-0.0132412
-0.0132457
-0.0132498
-0.0132533
-0.013256
-0.0132577
-0.0132582
-0.0132571
-0.0132544
-0.0163372
-0.0163388
-0.0163394
-0.0163391
-0.0163381
-0.0163364
-0.0163342
-0.0163316
-0.0163285
-0.0163253
-0.0163219
-0.0163184
-0.0163149
-0.0163115
-0.0163081
-0.0163049
-0.0163018
-0.0162989
-0.0162961
-0.0162935
-0.016291
-0.0162887
-0.0162866
-0.0162847
-0.0162829
-0.0162812
-0.0162797
-0.0162782
-0.0162769
-0.0162757
-0.0162746
-0.0162736
-0.0162726
-0.0162717
-0.0162709
-0.0162701
-0.0162694
-0.0162688
-0.0162682
-0.0162676
-0.0162671
-0.0162666
-0.0162661
-0.0162657
-0.0162653
-0.0162649
-0.0162646
-0.0162643
-0.016264
-0.0162637
-0.0162634
-0.0162631
-0.0162629
-0.0162627
-0.0162624
-0.0162622
-0.016262
-0.0162619
-0.0162617
-0.0162615
-0.0162614
-0.0162612
-0.0162611
-0.016261
-0.0162608
-0.0162607
-0.0162606
-0.0162605
-0.0162604
-0.0162603
-0.0162602
-0.0162601
-0.01626
-0.01626
-0.0162599
-0.0162598
-0.0162598
-0.0162597
-0.0162596
-0.0162596
-0.0162595
-0.0162595
-0.0162595
-0.0162594
-0.0162594
-0.0162593
-0.0162593
-0.0162593
-0.0162593
-0.0162592
-0.0162592
-0.0162592
-0.0162592
-0.0162592
-0.0162592
-0.0162592
-0.0162592
-0.0162592
-0.0162592
-0.0162592
-0.0162592
-0.0162592
-0.0162592
-0.0162592
-0.0162592
-0.0162592
-0.0162592
-0.0162593
-0.0162593
-0.0162593
-0.0162593
-0.0162594
-0.0162594
-0.0162594
-0.0162595
-0.0162595
-0.0162596
-0.0162596
-0.0162597
-0.0162597
-0.0162598
-0.0162599
-0.0162599
-0.01626
-0.0162601
-0.0162602
-0.0162603
-0.0162603
-0.0162604
-0.0162605
-0.0162606
-0.0162607
-0.0162609
-0.016261
-0.0162611
-0.0162612
-0.0162614
-0.0162615
-0.0162617
-0.0162619
-0.016262
-0.0162622
-0.0162624
-0.0162626
-0.0162628
-0.0162631
-0.0162633
-0.0162636
-0.0162639
-0.0162642
-0.0162645
-0.0162648
-0.0162651
-0.0162655
-0.0162659
-0.0162663
-0.0162668
-0.0162673
-0.0162678
-0.0162683
-0.0162689
-0.0162696
-0.0162702
-0.016271
-0.0162718
-0.0162726
-0.0162735
-0.0162745
-0.0162756
-0.0162768
-0.016278
-0.0162794
-0.0162809
-0.0162825
-0.0162842
-0.0162861
-0.0162881
-0.0162903
-0.0162927
-0.0162953
-0.016298
-0.0163009
-0.0163041
-0.0163074
-0.0163109
-0.0163145
-0.0163183
-0.0163222
-0.0163261
-0.0163301
-0.0163339
-0.0163376
-0.016341
-0.016344
-0.0163465
-0.0163484
-0.0163496
-0.0163499
-0.0163492
-0.0163474
-0.0196811
-0.0196818
-0.0196821
-0.019682
-0.0196814
-0.0196804
-0.0196789
-0.0196772
-0.0196752
-0.0196729
-0.0196705
-0.019668
-0.0196654
-0.0196628
-0.0196602
-0.0196577
-0.0196552
-0.0196528
-0.0196506
-0.0196484
-0.0196464
-0.0196445
-0.0196427
-0.019641
-0.0196394
-0.0196379
-0.0196366
-0.0196353
-0.0196341
-0.019633
-0.019632
-0.0196311
-0.0196302
-0.0196294
-0.0196286
-0.0196279
-0.0196273
-0.0196266
-0.0196261
-0.0196255
-0.019625
-0.0196246
-0.0196241
-0.0196237
-0.0196233
-0.019623
-0.0196227
-0.0196223
-0.019622
-0.0196218
-0.0196215
-0.0196212
-0.019621
-0.0196208
-0.0196206
-0.0196204
-0.0196202
-0.01962
-0.0196198
-0.0196197
-0.0196195
-0.0196194
-0.0196192
-0.0196191
-0.019619
-0.0196189
-0.0196188
-0.0196187
-0.0196186
-0.0196185
-0.0196184
-0.0196183
-0.0196182
-0.0196181
-0.0196181
-0.019618
-0.0196179
-0.0196179
-0.0196178
-0.0196178
-0.0196177
-0.0196177
-0.0196176
-0.0196176
-0.0196176
-0.0196175
-0.0196175
-0.0196175
-0.0196175
-0.0196174
-0.0196174
-0.0196174
-0.0196174
-0.0196174
-0.0196174
-0.0196174
-0.0196174
-0.0196174
-0.0196174
-0.0196174
-0.0196174
-0.0196174
-0.0196174
-0.0196174
-0.0196174
-0.0196174
-0.0196174
-0.0196175
-0.0196175
-0.0196175
-0.0196175
-0.0196176
-0.0196176
-0.0196176
-0.0196177
-0.0196177
-0.0196178
-0.0196178
-0.0196179
-0.0196179
-0.019618
-0.0196181
-0.0196181
-0.0196182
-0.0196183
-0.0196184
-0.0196184
-0.0196185
-0.0196186
-0.0196187
-0.0196188
-0.0196189
-0.019619
-0.0196192
-0.0196193
-0.0196194
-0.0196195
-0.0196197
-0.0196198
-0.01962
-0.0196202
-0.0196204
-0.0196206
-0.0196208
-0.019621
-0.0196212
-0.0196214
-0.0196217
-0.019622
-0.0196222
-0.0196225
-0.0196229
-0.0196232
-0.0196236
-0.0196239
-0.0196243
-0.0196248
-0.0196252
-0.0196257
-0.0196262
-0.0196268
-0.0196274
-0.0196281
-0.0196287
-0.0196295
-0.0196303
-0.0196311
-0.0196321
-0.019633
-0.0196341
-0.0196352
-0.0196365
-0.0196378
-0.0196392
-0.0196408
-0.0196424
-0.0196442
-0.0196461
-0.0196481
-0.0196503
-0.0196526
-0.019655
-0.0196576
-0.0196602
-0.019663
-0.0196659
-0.0196688
-0.0196718
-0.0196747
-0.0196776
-0.0196803
-0.0196829
-0.0196853
-0.0196873
-0.0196889
-0.0196901
-0.0196909
-0.019691
-0.0196907
-0.0196898
-0.0232505
-0.0232505
-0.0232505
-0.0232505
-0.0232503
-0.0232498
-0.0232492
-0.0232482
-0.0232471
-0.0232458
-0.0232442
-0.0232426
-0.0232409
-0.023239
-0.0232372
-0.0232354
-0.0232335
-0.0232317
-0.0232299
-0.0232282
-0.0232266
-0.023225
-0.0232236
-0.0232222
-0.0232208
-0.0232196
-0.0232184
-0.0232173
-0.0232162
-0.0232153
-0.0232144
-0.0232135
-0.0232127
-0.023212
-0.0232113
-0.0232106
-0.02321
-0.0232094
-0.0232089
-0.0232084
-0.0232079
-0.0232075
-0.0232071
-0.0232067
-0.0232063
-0.023206
-0.0232057
-0.0232054
-0.0232051
-0.0232048
-0.0232046
-0.0232043
-0.0232041
-0.0232039
-0.0232037
-0.0232035
-0.0232033
-0.0232031
-0.023203
-0.0232028
-0.0232027
-0.0232025
-0.0232024
-0.0232023
-0.0232021
-0.023202
-0.0232019
-0.0232018
-0.0232017
-0.0232016
-0.0232016
-0.0232015
-0.0232014
-0.0232013
-0.0232012
-0.0232012
-0.0232011
-0.0232011
-0.023201
-0.023201
-0.0232009
-0.0232009
-0.0232008
-0.0232008
-0.0232008
-0.0232007
-0.0232007
-0.0232007
-0.0232006
-0.0232006
-0.0232006
-0.0232006
-0.0232006
-0.0232006
-0.0232005
-0.0232005
-0.0232005
-0.0232005
-0.0232005
-0.0232005
-0.0232005
-0.0232005
-0.0232006
-0.0232006
-0.0232006
-0.0232006
-0.0232006
-0.0232006
-0.0232007
-0.0232007
-0.0232007
-0.0232008
-0.0232008
-0.0232008
-0.0232009
-0.0232009
-0.023201
-0.023201
-0.0232011
-0.0232011
-0.0232012
-0.0232012
-0.0232013
-0.0232014
-0.0232014
-0.0232015
-0.0232016
-0.0232017
-0.0232018
-0.0232019
-0.023202
-0.0232021
-0.0232022
-0.0232023
-0.0232024
-0.0232026
-0.0232027
-0.0232028
-0.023203
-0.0232031
-0.0232033
-0.0232035
-0.0232037
-0.0232039
-0.0232041
-0.0232043
-0.0232045
-0.0232048
-0.023205
-0.0232053
-0.0232056
-0.0232059
-0.0232062
-0.0232066
-0.0232069
-0.0232073
-0.0232077
-0.0232082
-0.0232086
-0.0232091
-0.0232096
-0.0232102
-0.0232108
-0.0232114
-0.0232121
-0.0232129
-0.0232136
-0.0232145
-0.0232154
-0.0232163
-0.0232174
-0.0232185
-0.0232196
-0.0232209
-0.0232222
-0.0232236
-0.0232251
-0.0232267
-0.0232284
-0.0232302
-0.023232
-0.0232339
-0.0232359
-0.023238
-0.0232401
-0.0232422
-0.0232443
-0.0232464
-0.0232484
-0.0232503
-0.023252
-0.0232536
-0.023255
-0.0232561
-0.023257
-0.0232575
-0.0232578
-0.0232579
-0.0232579
-0.0232578
-0.0270222
-0.0270215
-0.0270212
-0.0270213
-0.0270214
-0.0270215
-0.0270215
-0.0270213
-0.0270209
-0.0270204
-0.0270197
-0.0270189
-0.0270179
-0.0270168
-0.0270157
-0.0270145
-0.0270132
-0.0270119
-0.0270107
-0.0270094
-0.0270081
-0.0270069
-0.0270057
-0.0270046
-0.0270035
-0.0270025
-0.0270015
-0.0270005
-0.0269996
-0.0269988
-0.026998
-0.0269972
-0.0269965
-0.0269958
-0.0269952
-0.0269946
-0.0269941
-0.0269935
-0.026993
-0.0269926
-0.0269921
-0.0269917
-0.0269914
-0.026991
-0.0269906
-0.0269903
-0.02699
-0.0269897
-0.0269895
-0.0269892
-0.026989
-0.0269887
-0.0269885
-0.0269883
-0.0269881
-0.0269879
-0.0269877
-0.0269876
-0.0269874
-0.0269873
-0.0269871
-0.026987
-0.0269869
-0.0269867
-0.0269866
-0.0269865
-0.0269864
-0.0269863
-0.0269862
-0.0269861
-0.026986
-0.026986
-0.0269859
-0.0269858
-0.0269858
-0.0269857
-0.0269856
-0.0269856
-0.0269855
-0.0269855
-0.0269854
-0.0269854
-0.0269853
-0.0269853
-0.0269853
-0.0269852
-0.0269852
-0.0269852
-0.0269852
-0.0269851
-0.0269851
-0.0269851
-0.0269851
-0.0269851
-0.0269851
-0.0269851
-0.0269851
-0.0269851
-0.0269851
-0.0269851
-0.0269851
-0.0269851
-0.0269851
-0.0269851
-0.0269851
-0.0269851
-0.0269851
-0.0269852
-0.0269852
-0.0269852
-0.0269852
-0.0269853