/*--------------------------------*- C++ -*----------------------------------*\
| =========                 |                                                 |
| \\      /  F ield         | OpenFOAM: The Open Source CFD Toolbox           |
|  \\    /   O peration     | Version:  2412                                  |
|   \\  /    A nd           | Website:  www.openfoam.com                      |
|    \\/     M anipulation  |                                                 |
\*---------------------------------------------------------------------------*/
FoamFile
{
    version     2.0;
    format      ascii;
    arch        "LSB;label=32;scalar=64";
    class       volScalarField;
    location    "200";
    object      p_rgh;
}
// * * * * * * * * * * * * * * * * * * * * * * * * * * * * * * * * * * * * * //

dimensions      [0 2 -2 0 0 0 0];

internalField   nonuniform List<scalar> 
40000
(
9.66783e-05
9.42407e-05
9.52499e-05
0.000100161
0.00010842
0.000119235
0.000131735
0.000145125
0.000158762
0.000172156
0.000184957
0.000196937
0.000207968
0.000218001
0.000227031
0.000235105
0.00024228
0.000248637
0.000254257
0.000259215
0.000263592
0.000267457
0.000270876
0.000273904
0.000276597
0.000278994
0.000281134
0.000283047
0.000284764
0.000286313
0.000287714
0.000288983
0.000290137
0.000291188
0.000292147
0.000293027
0.000293833
0.000294578
0.000295259
0.000295897
0.000296481
0.000297025
0.000297535
0.000298002
0.000298437
0.000298849
0.000299229
0.000299582
0.000299916
0.00030023
0.000300524
0.0003008
0.000301059
0.000301303
0.000301532
0.000301747
0.000301951
0.000302144
0.000302328
0.000302501
0.000302664
0.000302817
0.000302961
0.000303098
0.000303229
0.000303353
0.000303471
0.000303582
0.000303687
0.000303787
0.000303881
0.00030397
0.000304053
0.000304132
0.000304207
0.000304278
0.000304346
0.000304408
0.000304466
0.00030452
0.000304571
0.00030462
0.000304665
0.000304707
0.000304745
0.00030478
0.000304812
0.000304841
0.000304868
0.000304891
0.000304912
0.000304929
0.000304944
0.000304957
0.000304967
0.000304974
0.000304978
0.000304979
0.000304977
0.000304973
0.000304968
0.000304959
0.000304947
0.000304932
0.000304916
0.000304898
0.000304877
0.000304853
0.000304825
0.000304796
0.000304764
0.000304729
0.000304692
0.000304653
0.000304611
0.000304566
0.000304518
0.000304466
0.000304411
0.000304354
0.000304293
0.000304228
0.000304159
0.000304086
0.000304009
0.000303929
0.000303843
0.000303751
0.000303653
0.00030355
0.000303442
0.00030333
0.000303211
0.000303084
0.000302949
0.000302807
0.000302658
0.0003025
0.000302332
0.000302155
0.000301969
0.000301774
0.000301571
0.000301354
0.00030112
0.00030087
0.000300606
0.000300329
0.000300038
0.00029973
0.000299402
0.000299052
0.000298678
0.000298275
0.000297844
0.000297383
0.00029689
0.000296361
0.000295793
0.000295182
0.000294523
0.000293812
0.000293043
0.00029221
0.000291305
0.000290319
0.00028924
0.000288058
0.00028676
0.000285332
0.000283758
0.000282017
0.000280084
0.000277931
0.000275529
0.000272839
0.000269819
0.000266418
0.000262579
0.000258241
0.000253334
0.00024778
0.000241496
0.000234392
0.000226384
0.000217388
0.000207342
0.000196207
0.000183985
0.000170744
0.000156634
0.000141917
0.000126987
0.000112394
9.88524e-05
8.72221e-05
7.84497e-05
7.33679e-05
7.25181e-05
7.54057e-05
0.000484149
0.000483157
0.000485517
0.000491357
0.000499949
0.00051066
0.000522791
0.000535704
0.000548863
0.000561843
0.000574329
0.000586105
0.000597039
0.000607064
0.000616163
0.000624359
0.000631694
0.000638229
0.000644033
0.00064918
0.000653738
0.000657772
0.000661349
0.000664517
0.000667331
0.000669836
0.000672071
0.000674067
0.000675858
0.000677467
0.000678919
0.000680234
0.000681428
0.000682513
0.000683502
0.000684408
0.000685236
0.000685997
0.000686701
0.000687349
0.000687949
0.000688506
0.000689024
0.000689502
0.000689946
0.000690361
0.000690746
0.000691106
0.000691444
0.000691762
0.000692061
0.000692342
0.000692606
0.000692852
0.000693084
0.000693302
0.000693507
0.000693701
0.000693886
0.000694062
0.000694228
0.000694383
0.000694529
0.000694666
0.000694797
0.000694922
0.000695041
0.000695154
0.000695261
0.00069536
0.000695454
0.000695543
0.000695628
0.000695708
0.000695784
0.000695855
0.000695922
0.000695985
0.000696044
0.000696098
0.000696149
0.000696197
0.000696243
0.000696286
0.000696325
0.000696359
0.00069639
0.000696419
0.000696445
0.00069647
0.000696492
0.00069651
0.000696525
0.000696536
0.000696545
0.000696552
0.000696557
0.000696559
0.000696558
0.000696554
0.000696548
0.000696539
0.000696528
0.000696513
0.000696497
0.000696478
0.000696457
0.000696432
0.000696406
0.000696377
0.000696345
0.000696311
0.000696273
0.000696232
0.00069619
0.000696145
0.000696098
0.000696046
0.00069599
0.000695931
0.000695869
0.000695804
0.000695736
0.000695663
0.000695585
0.000695503
0.000695416
0.000695323
0.000695225
0.000695122
0.000695013
0.0006949
0.000694779
0.000694652
0.000694516
0.000694372
0.000694221
0.000694062
0.000693896
0.00069372
0.00069353
0.000693329
0.000693119
0.000692899
0.000692668
0.000692421
0.000692158
0.000691877
0.000691578
0.000691261
0.000690923
0.000690567
0.000690188
0.000689783
0.000689349
0.000688882
0.000688381
0.000687843
0.000687262
0.000686636
0.000685961
0.000685232
0.000684443
0.000683586
0.000682654
0.000681639
0.000680528
0.000679309
0.000677968
0.000676488
0.000674854
0.000673043
0.000671031
0.000668786
0.000666277
0.000663463
0.000660302
0.000656746
0.000652735
0.000648209
0.000643102
0.00063734
0.00063085
0.000623553
0.000615377
0.000606256
0.000596145
0.000585029
0.00057293
0.00055993
0.000546184
0.000531939
0.000517549
0.000503488
0.000490351
0.000478836
0.000469708
0.000463646
0.000461383
0.000462939
0.0012406
0.00124239
0.00124722
0.00125515
0.00126528
0.00127707
0.00128992
0.00130332
0.00131681
0.00133004
0.00134274
0.00135471
0.00136585
0.00137608
0.00138539
0.00139379
0.00140134
0.00140807
0.00141406
0.00141938
0.00142409
0.00142827
0.00143197
0.00143524
0.00143815
0.00144073
0.00144303
0.00144509
0.00144693
0.00144858
0.00145007
0.00145141
0.00145263
0.00145374
0.00145475
0.00145566
0.00145651
0.00145728
0.00145799
0.00145865
0.00145926
0.00145982
0.00146034
0.00146083
0.00146128
0.0014617
0.00146209
0.00146245
0.00146279
0.00146311
0.00146341
0.00146369
0.00146396
0.00146421
0.00146444
0.00146466
0.00146487
0.00146507
0.00146525
0.00146543
0.00146559
0.00146575
0.0014659
0.00146604
0.00146617
0.00146629
0.00146641
0.00146652
0.00146663
0.00146673
0.00146683
0.00146692
0.001467
0.00146708
0.00146716
0.00146723
0.0014673
0.00146736
0.00146742
0.00146747
0.00146752
0.00146757
0.00146762
0.00146766
0.0014677
0.00146773
0.00146776
0.00146779
0.00146782
0.00146784
0.00146786
0.00146788
0.0014679
0.00146791
0.00146792
0.00146792
0.00146793
0.00146793
0.00146793
0.00146793
0.00146792
0.00146791
0.0014679
0.00146789
0.00146787
0.00146785
0.00146783
0.00146781
0.00146778
0.00146775
0.00146772
0.00146769
0.00146765
0.00146761
0.00146757
0.00146752
0.00146747
0.00146742
0.00146736
0.0014673
0.00146724
0.00146718
0.00146711
0.00146703
0.00146696
0.00146687
0.00146678
0.00146669
0.00146659
0.00146649
0.00146638
0.00146627
0.00146615
0.00146602
0.00146588
0.00146574
0.00146559
0.00146543
0.00146526
0.00146508
0.0014649
0.0014647
0.00146448
0.00146426
0.00146402
0.00146377
0.00146351
0.00146323
0.00146293
0.00146261
0.00146227
0.00146191
0.00146153
0.00146112
0.00146068
0.0014602
0.0014597
0.00145915
0.00145857
0.00145793
0.00145725
0.00145651
0.00145571
0.00145484
0.0014539
0.00145286
0.00145173
0.00145048
0.00144912
0.0014476
0.00144593
0.00144407
0.001442
0.00143969
0.00143711
0.0014342
0.00143094
0.00142726
0.00142311
0.00141843
0.00141315
0.0014072
0.0014005
0.00139298
0.00138458
0.00137523
0.00136489
0.00135355
0.00134124
0.00132803
0.00131406
0.00129956
0.00128482
0.00127025
0.00125634
0.00124368
0.0012329
0.00122463
0.0012198
0.00121873
0.00234321
0.00234944
0.00235805
0.00236923
0.00238204
0.00239596
0.00241051
0.00242522
0.00243976
0.00245382
0.00246719
0.00247971
0.00249131
0.00250193
0.00251157
0.00252027
0.00252806
0.002535
0.00254118
0.00254665
0.00255149
0.00255577
0.00255956
0.00256291
0.00256588
0.00256851
0.00257085
0.00257294
0.0025748
0.00257648
0.00257798
0.00257934
0.00258057
0.00258168
0.0025827
0.00258363
0.00258447
0.00258525
0.00258597
0.00258663
0.00258724
0.0025878
0.00258833
0.00258881
0.00258926
0.00258968
0.00259008
0.00259044
0.00259078
0.00259111
0.00259141
0.00259169
0.00259195
0.0025922
0.00259244
0.00259266
0.00259287
0.00259307
0.00259325
0.00259343
0.00259359
0.00259375
0.0025939
0.00259404
0.00259417
0.00259429
0.00259441
0.00259453
0.00259463
0.00259473
0.00259483
0.00259492
0.002595
0.00259508
0.00259516
0.00259523
0.0025953
0.00259536
0.00259542
0.00259547
0.00259552
0.00259557
0.00259562
0.00259566
0.0025957
0.00259573
0.00259576
0.00259579
0.00259582
0.00259584
0.00259586
0.00259588
0.00259589
0.00259591
0.00259592
0.00259592
0.00259593
0.00259593
0.00259593
0.00259593
0.00259592
0.00259591
0.0025959
0.00259589
0.00259588
0.00259586
0.00259584
0.00259581
0.00259579
0.00259576
0.00259573
0.00259569
0.00259565
0.00259561
0.00259557
0.00259552
0.00259547
0.00259542
0.00259537
0.00259531
0.00259524
0.00259518
0.00259511
0.00259503
0.00259496
0.00259487
0.00259478
0.00259469
0.00259459
0.00259449
0.00259438
0.00259427
0.00259414
0.00259402
0.00259388
0.00259374
0.00259359
0.00259343
0.00259326
0.00259308
0.00259289
0.00259269
0.00259248
0.00259226
0.00259202
0.00259177
0.0025915
0.00259122
0.00259092
0.0025906
0.00259027
0.0025899
0.00258952
0.00258911
0.00258866
0.00258819
0.00258768
0.00258714
0.00258655
0.00258591
0.00258522
0.00258448
0.00258368
0.0025828
0.00258185
0.00258081
0.00257967
0.00257841
0.00257703
0.0025755
0.00257381
0.00257193
0.00256983
0.00256748
0.00256485
0.00256189
0.00255856
0.00255479
0.00255054
0.00254574
0.00254031
0.00253419
0.00252728
0.00251953
0.00251085
0.00250117
0.00249046
0.0024787
0.00246588
0.00245206
0.00243736
0.00242195
0.00240608
0.00239008
0.00237436
0.00235939
0.00234575
0.00233401
0.00232521
0.00231976
0.00376051
0.0037728
0.00378644
0.00380192
0.00381831
0.0038352
0.00385216
0.00386883
0.00388494
0.00390027
0.00391465
0.003928
0.00394026
0.00395142
0.00396149
0.00397054
0.00397861
0.00398578
0.00399213
0.00399774
0.0040027
0.00400706
0.00401091
0.00401431
0.0040173
0.00401996
0.00402231
0.00402441
0.00402628
0.00402796
0.00402946
0.00403082
0.00403204
0.00403316
0.00403417
0.00403509
0.00403594
0.00403671
0.00403743
0.00403809
0.00403869
0.00403925
0.00403978
0.00404026
0.00404071
0.00404113
0.00404152
0.00404189
0.00404223
0.00404255
0.00404285
0.00404313
0.0040434
0.00404365
0.00404388
0.0040441
0.00404431
0.0040445
0.00404469
0.00404486
0.00404503
0.00404519
0.00404533
0.00404547
0.00404561
0.00404573
0.00404585
0.00404596
0.00404607
0.00404617
0.00404626
0.00404635
0.00404644
0.00404652
0.00404659
0.00404666
0.00404673
0.00404679
0.00404685
0.00404691
0.00404696
0.004047
0.00404705
0.00404709
0.00404713
0.00404716
0.00404719
0.00404722
0.00404725
0.00404727
0.00404729
0.00404731
0.00404732
0.00404734
0.00404735
0.00404736
0.00404736
0.00404736
0.00404736
0.00404736
0.00404736
0.00404735
0.00404734
0.00404733
0.00404731
0.00404729
0.00404727
0.00404725
0.00404722
0.00404719
0.00404716
0.00404713
0.00404709
0.00404705
0.00404701
0.00404696
0.00404691
0.00404686
0.0040468
0.00404674
0.00404668
0.00404661
0.00404654
0.00404647
0.00404639
0.0040463
0.00404622
0.00404612
0.00404602
0.00404592
0.00404581
0.0040457
0.00404558
0.00404545
0.00404532
0.00404517
0.00404502
0.00404486
0.0040447
0.00404452
0.00404433
0.00404413
0.00404392
0.0040437
0.00404346
0.00404321
0.00404295
0.00404266
0.00404236
0.00404205
0.00404171
0.00404135
0.00404096
0.00404055
0.00404011
0.00403964
0.00403913
0.00403859
0.004038
0.00403737
0.00403668
0.00403594
0.00403514
0.00403427
0.00403332
0.00403228
0.00403114
0.00402989
0.00402851
0.00402698
0.00402529
0.0040234
0.0040213
0.00401894
0.00401629
0.0040133
0.00400993
0.00400611
0.00400179
0.00399689
0.00399134
0.00398505
0.00397795
0.00396994
0.00396094
0.00395087
0.00393968
0.00392731
0.00391375
0.00389902
0.0038832
0.00386639
0.0038488
0.00383066
0.00381232
0.00379415
0.00377665
0.00376029
0.00374611
0.00373452
0.00545329
0.00547287
0.00549253
0.00551307
0.00553374
0.00555419
0.00557409
0.00559316
0.00561123
0.00562814
0.00564379
0.00565816
0.00567122
0.00568301
0.00569358
0.00570301
0.00571137
0.00571876
0.00572528
0.00573101
0.00573604
0.00574046
0.00574434
0.00574775
0.00575075
0.0057534
0.00575575
0.00575783
0.00575969
0.00576134
0.00576283
0.00576417
0.00576538
0.00576648
0.00576748
0.00576839
0.00576923
0.00576999
0.0057707
0.00577135
0.00577195
0.00577251
0.00577302
0.0057735
0.00577395
0.00577436
0.00577475
0.00577511
0.00577545
0.00577577
0.00577607
0.00577635
0.00577661
0.00577686
0.00577709
0.00577731
0.00577751
0.00577771
0.00577789
0.00577807
0.00577823
0.00577839
0.00577854
0.00577867
0.00577881
0.00577893
0.00577905
0.00577916
0.00577927
0.00577937
0.00577946
0.00577955
0.00577964
0.00577971
0.00577979
0.00577986
0.00577993
0.00577999
0.00578005
0.0057801
0.00578015
0.0057802
0.00578024
0.00578028
0.00578032
0.00578035
0.00578038
0.00578041
0.00578044
0.00578046
0.00578048
0.0057805
0.00578051
0.00578053
0.00578054
0.00578055
0.00578055
0.00578055
0.00578055
0.00578055
0.00578055
0.00578054
0.00578053
0.00578052
0.0057805
0.00578049
0.00578047
0.00578044
0.00578042
0.00578039
0.00578036
0.00578032
0.00578029
0.00578025
0.0057802
0.00578016
0.00578011
0.00578005
0.00577999
0.00577993
0.00577987
0.0057798
0.00577973
0.00577966
0.00577958
0.0057795
0.00577941
0.00577932
0.00577922
0.00577912
0.00577901
0.0057789
0.00577878
0.00577865
0.00577852
0.00577837
0.00577822
0.00577807
0.0057779
0.00577772
0.00577754
0.00577734
0.00577713
0.00577691
0.00577667
0.00577642
0.00577616
0.00577588
0.00577558
0.00577527
0.00577493
0.00577457
0.00577419
0.00577379
0.00577335
0.00577288
0.00577238
0.00577184
0.00577126
0.00577063
0.00576995
0.00576922
0.00576843
0.00576757
0.00576663
0.0057656
0.00576448
0.00576324
0.00576188
0.00576037
0.00575869
0.00575682
0.00575474
0.00575239
0.00574975
0.00574677
0.00574339
0.00573956
0.00573519
0.00573023
0.00572458
0.00571816
0.00571086
0.0057026
0.00569326
0.00568276
0.005671
0.00565792
0.00564346
0.0056276
0.00561037
0.00559182
0.00557207
0.00555129
0.00552972
0.00550767
0.00548553
0.00546369
0.00544304
0.00542394
0.00737636
0.00740396
0.00743021
0.00745631
0.00748166
0.00750602
0.00752916
0.0075509
0.00757113
0.00758979
0.00760684
0.00762232
0.00763625
0.00764872
0.0076598
0.00766962
0.00767826
0.00768585
0.00769251
0.00769832
0.0077034
0.00770784
0.00771172
0.00771511
0.00771809
0.00772071
0.00772302
0.00772506
0.00772688
0.00772851
0.00772996
0.00773127
0.00773245
0.00773353
0.0077345
0.00773539
0.00773621
0.00773696
0.00773765
0.00773829
0.00773888
0.00773942
0.00773993
0.0077404
0.00774084
0.00774125
0.00774163
0.00774199
0.00774232
0.00774263
0.00774293
0.0077432
0.00774347
0.00774371
0.00774394
0.00774416
0.00774436
0.00774455
0.00774474
0.00774491
0.00774507
0.00774523
0.00774537
0.00774551
0.00774564
0.00774576
0.00774588
0.00774599
0.0077461
0.0077462
0.00774629
0.00774638
0.00774646
0.00774654
0.00774662
0.00774669
0.00774675
0.00774681
0.00774687
0.00774692
0.00774697
0.00774702
0.00774706
0.0077471
0.00774714
0.00774717
0.00774721
0.00774723
0.00774726
0.00774728
0.0077473
0.00774732
0.00774733
0.00774735
0.00774736
0.00774737
0.00774737
0.00774737
0.00774737
0.00774737
0.00774737
0.00774736
0.00774735
0.00774734
0.00774733
0.00774731
0.00774729
0.00774727
0.00774724
0.00774721
0.00774718
0.00774715
0.00774711
0.00774707
0.00774703
0.00774698
0.00774693
0.00774688
0.00774682
0.00774676
0.0077467
0.00774663
0.00774656
0.00774649
0.00774641
0.00774632
0.00774623
0.00774614
0.00774605
0.00774595
0.00774584
0.00774573
0.00774561
0.00774548
0.00774535
0.00774521
0.00774506
0.0077449
0.00774474
0.00774457
0.00774438
0.00774418
0.00774398
0.00774376
0.00774353
0.00774328
0.00774302
0.00774274
0.00774245
0.00774214
0.00774181
0.00774145
0.00774108
0.00774067
0.00774024
0.00773978
0.00773929
0.00773876
0.00773819
0.00773757
0.00773691
0.00773619
0.00773541
0.00773457
0.00773365
0.00773265
0.00773155
0.00773034
0.00772901
0.00772753
0.00772589
0.00772406
0.00772201
0.00771971
0.00771711
0.00771416
0.0077108
0.00770698
0.00770261
0.00769762
0.00769192
0.00768539
0.00767793
0.00766943
0.00765977
0.00764882
0.00763647
0.00762262
0.00760718
0.00759007
0.00757127
0.00755077
0.00752862
0.0075049
0.00747976
0.00745342
0.00742616
0.00739826
0.00737044
0.00734298
0.00948039
0.00951624
0.00954926
0.00958104
0.00961118
0.00963955
0.009666
0.00969046
0.00971291
0.00973334
0.00975182
0.0097684
0.0097832
0.00979632
0.00980789
0.00981806
0.00982695
0.0098347
0.00984145
0.00984731
0.0098524
0.00985682
0.00986066
0.00986401
0.00986693
0.00986949
0.00987174
0.00987373
0.00987549
0.00987707
0.00987847
0.00987974
0.00988088
0.00988192
0.00988286
0.00988373
0.00988452
0.00988524
0.00988591
0.00988653
0.00988711
0.00988764
0.00988813
0.00988859
0.00988902
0.00988942
0.00988979
0.00989014
0.00989047
0.00989078
0.00989107
0.00989134
0.00989159
0.00989183
0.00989206
0.00989227
0.00989248
0.00989267
0.00989285
0.00989302
0.00989318
0.00989333
0.00989347
0.00989361
0.00989374
0.00989386
0.00989398
0.00989409
0.00989419
0.00989429
0.00989438
0.00989447
0.00989455
0.00989463
0.0098947
0.00989477
0.00989484
0.0098949
0.00989496
0.00989501
0.00989506
0.0098951
0.00989515
0.00989519
0.00989522
0.00989526
0.00989529
0.00989532
0.00989534
0.00989536
0.00989538
0.0098954
0.00989542
0.00989543
0.00989544
0.00989545
0.00989545
0.00989546
0.00989546
0.00989545
0.00989545
0.00989544
0.00989544
0.00989542
0.00989541
0.00989539
0.00989537
0.00989535
0.00989533
0.0098953
0.00989527
0.00989523
0.0098952
0.00989516
0.00989511
0.00989507
0.00989502
0.00989496
0.00989491
0.00989485
0.00989478
0.00989472
0.00989465
0.00989457
0.0098945
0.00989441
0.00989432
0.00989423
0.00989414
0.00989404
0.00989393
0.00989382
0.0098937
0.00989358
0.00989345
0.00989331
0.00989316
0.00989301
0.00989285
0.00989267
0.00989249
0.0098923
0.00989209
0.00989188
0.00989165
0.00989141
0.00989115
0.00989088
0.00989059
0.00989028
0.00988996
0.00988961
0.00988924
0.00988885
0.00988842
0.00988797
0.00988749
0.00988697
0.00988641
0.00988582
0.00988517
0.00988447
0.00988372
0.0098829
0.00988201
0.00988104
0.00987997
0.00987881
0.00987752
0.00987609
0.0098745
0.00987273
0.00987074
0.0098685
0.00986596
0.00986308
0.00985978
0.00985601
0.00985168
0.0098467
0.00984097
0.00983439
0.00982681
0.00981812
0.00980816
0.00979681
0.0097839
0.00976929
0.00975287
0.0097345
0.0097141
0.0096916
0.00966698
0.00964023
0.00961142
0.00958065
0.0095481
0.00951395
0.00947871
0.00944254
0.011714
0.0117578
0.0117974
0.0118347
0.0118694
0.0119016
0.0119313
0.0119583
0.0119829
0.012005
0.0120248
0.0120424
0.012058
0.0120717
0.0120837
0.0120941
0.0121032
0.012111
0.0121178
0.0121237
0.0121287
0.0121331
0.0121369
0.0121401
0.012143
0.0121454
0.0121476
0.0121495
0.0121512
0.0121527
0.0121541
0.0121553
0.0121564
0.0121574
0.0121583
0.0121591
0.0121598
0.0121605
0.0121612
0.0121618
0.0121623
0.0121628
0.0121633
0.0121638
0.0121642
0.0121646
0.0121649
0.0121653
0.0121656
0.0121659
0.0121662
0.0121664
0.0121667
0.0121669
0.0121672
0.0121674
0.0121676
0.0121677
0.0121679
0.0121681
0.0121683
0.0121684
0.0121685
0.0121687
0.0121688
0.0121689
0.012169
0.0121691
0.0121692
0.0121693
0.0121694
0.0121695
0.0121696
0.0121697
0.0121698
0.0121698
0.0121699
0.0121699
0.01217
0.0121701
0.0121701
0.0121702
0.0121702
0.0121702
0.0121703
0.0121703
0.0121703
0.0121704
0.0121704
0.0121704
0.0121704
0.0121704
0.0121705
0.0121705
0.0121705
0.0121705
0.0121705
0.0121705
0.0121705
0.0121705
0.0121705
0.0121705
0.0121705
0.0121705
0.0121705
0.0121704
0.0121704
0.0121704
0.0121704
0.0121703
0.0121703
0.0121703
0.0121702
0.0121702
0.0121702
0.0121701
0.0121701
0.01217
0.01217
0.0121699
0.0121698
0.0121698
0.0121697
0.0121696
0.0121695
0.0121695
0.0121694
0.0121693
0.0121692
0.0121691
0.012169
0.0121689
0.0121688
0.0121686
0.0121685
0.0121684
0.0121682
0.0121681
0.0121679
0.0121678
0.0121676
0.0121674
0.0121672
0.012167
0.0121667
0.0121665
0.0121663
0.012166
0.0121657
0.0121654
0.0121651
0.0121648
0.0121644
0.012164
0.0121636
0.0121632
0.0121627
0.0121622
0.0121616
0.0121611
0.0121604
0.0121598
0.012159
0.0121583
0.0121574
0.0121565
0.0121555
0.0121543
0.0121531
0.0121517
0.0121502
0.0121485
0.0121466
0.0121445
0.012142
0.0121392
0.012136
0.0121323
0.0121281
0.0121232
0.0121175
0.0121109
0.0121032
0.0120944
0.0120842
0.0120725
0.0120591
0.0120439
0.0120265
0.012007
0.0119851
0.0119607
0.0119337
0.011904
0.0118717
0.0118366
0.0117989
0.0117587
0.0117162
0.0116715
0.0140257
0.0140769
0.0141225
0.0141647
0.0142037
0.0142393
0.0142718
0.0143012
0.0143276
0.0143511
0.0143721
0.0143905
0.0144067
0.0144209
0.0144332
0.0144438
0.014453
0.0144609
0.0144676
0.0144734
0.0144784
0.0144827
0.0144863
0.0144895
0.0144922
0.0144946
0.0144966
0.0144984
0.0145
0.0145015
0.0145027
0.0145039
0.0145049
0.0145058
0.0145067
0.0145075
0.0145082
0.0145089
0.0145095
0.0145101
0.0145106
0.0145111
0.0145115
0.014512
0.0145124
0.0145127
0.0145131
0.0145134
0.0145137
0.014514
0.0145143
0.0145146
0.0145148
0.014515
0.0145152
0.0145155
0.0145156
0.0145158
0.014516
0.0145162
0.0145163
0.0145165
0.0145166
0.0145167
0.0145169
0.014517
0.0145171
0.0145172
0.0145173
0.0145174
0.0145175
0.0145176
0.0145177
0.0145177
0.0145178
0.0145179
0.0145179
0.014518
0.014518
0.0145181
0.0145181
0.0145182
0.0145182
0.0145183
0.0145183
0.0145183
0.0145184
0.0145184
0.0145184
0.0145184
0.0145185
0.0145185
0.0145185
0.0145185
0.0145185
0.0145185
0.0145185
0.0145185
0.0145185
0.0145185
0.0145185
0.0145185
0.0145185
0.0145185
0.0145185
0.0145185
0.0145185
0.0145184
0.0145184
0.0145184
0.0145183
0.0145183
0.0145183
0.0145182
0.0145182
0.0145182
0.0145181
0.0145181
0.014518
0.0145179
0.0145179
0.0145178
0.0145177
0.0145177
0.0145176
0.0145175
0.0145174
0.0145173
0.0145172
0.0145172
0.014517
0.0145169
0.0145168
0.0145167
0.0145166
0.0145164
0.0145163
0.0145162
0.014516
0.0145158
0.0145157
0.0145155
0.0145153
0.0145151
0.0145148
0.0145146
0.0145144
0.0145141
0.0145138
0.0145135
0.0145132
0.0145129
0.0145126
0.0145122
0.0145118
0.0145114
0.0145109
0.0145104
0.0145099
0.0145093
0.0145088
0.0145081
0.0145074
0.0145067
0.0145059
0.014505
0.014504
0.014503
0.0145018
0.0145005
0.0144991
0.0144975
0.0144956
0.0144936
0.0144913
0.0144886
0.0144855
0.0144819
0.0144778
0.014473
0.0144674
0.0144608
0.0144532
0.0144443
0.014434
0.0144221
0.0144083
0.0143925
0.0143745
0.0143539
0.0143307
0.0143047
0.0142756
0.0142433
0.0142077
0.0141687
0.0141264
0.0140805
0.0140313
0.0139787
0.0163661
0.0164236
0.0164743
0.0165208
0.0165633
0.0166019
0.0166367
0.016668
0.0166958
0.0167205
0.0167423
0.0167614
0.0167781
0.0167925
0.016805
0.0168157
0.0168248
0.0168326
0.0168393
0.016845
0.0168498
0.0168539
0.0168574
0.0168604
0.016863
0.0168653
0.0168672
0.0168689
0.0168704
0.0168717
0.0168729
0.016874
0.0168749
0.0168758
0.0168766
0.0168774
0.016878
0.0168787
0.0168792
0.0168798
0.0168803
0.0168808
0.0168812
0.0168816
0.016882
0.0168823
0.0168827
0.016883
0.0168833
0.0168836
0.0168838
0.0168841
0.0168843
0.0168846
0.0168848
0.016885
0.0168852
0.0168853
0.0168855
0.0168857
0.0168858
0.016886
0.0168861
0.0168862
0.0168863
0.0168865
0.0168866
0.0168867
0.0168868
0.0168869
0.016887
0.016887
0.0168871
0.0168872
0.0168873
0.0168873
0.0168874
0.0168874
0.0168875
0.0168876
0.0168876
0.0168876
0.0168877
0.0168877
0.0168878
0.0168878
0.0168878
0.0168879
0.0168879
0.0168879
0.0168879
0.0168879
0.0168879
0.016888
0.016888
0.016888
0.016888
0.016888
0.016888
0.016888
0.016888
0.016888
0.016888
0.016888
0.0168879
0.0168879
0.0168879
0.0168879
0.0168879
0.0168878
0.0168878
0.0168878
0.0168877
0.0168877
0.0168876
0.0168876
0.0168876
0.0168875
0.0168875
0.0168874
0.0168873
0.0168873
0.0168872
0.0168871
0.0168871
0.016887
0.0168869
0.0168868
0.0168867
0.0168866
0.0168865
0.0168864
0.0168863
0.0168862
0.0168861
0.0168859
0.0168858
0.0168856
0.0168855
0.0168853
0.0168852
0.016885
0.0168848
0.0168846
0.0168844
0.0168841
0.0168839
0.0168836
0.0168834
0.0168831
0.0168828
0.0168825
0.0168821
0.0168818
0.0168814
0.016881
0.0168806
0.0168801
0.0168796
0.0168791
0.0168785
0.0168779
0.0168773
0.0168765
0.0168758
0.016875
0.0168741
0.0168731
0.016872
0.0168708
0.0168694
0.0168679
0.0168662
0.0168643
0.0168621
0.0168596
0.0168567
0.0168532
0.0168493
0.0168446
0.0168391
0.0168327
0.0168252
0.0168164
0.0168061
0.016794
0.0167801
0.0167639
0.0167453
0.016724
0.0166998
0.0166724
0.0166416
0.0166071
0.0165689
0.0165266
0.0164802
0.0164295
0.0163745
0.016315
0.0186892
0.0187517
0.0188066
0.0188565
0.0189017
0.0189424
0.018979
0.0190116
0.0190405
0.019066
0.0190883
0.0191078
0.0191246
0.0191391
0.0191516
0.0191622
0.0191712
0.0191789
0.0191854
0.0191909
0.0191955
0.0191994
0.0192028
0.0192056
0.019208
0.0192101
0.0192119
0.0192135
0.0192149
0.0192161
0.0192172
0.0192182
0.0192191
0.0192199
0.0192206
0.0192213
0.0192219
0.0192225
0.019223
0.0192236
0.019224
0.0192245
0.0192249
0.0192253
0.0192256
0.019226
0.0192263
0.0192266
0.0192269
0.0192272
0.0192274
0.0192277
0.0192279
0.0192281
0.0192283
0.0192285
0.0192287
0.0192288
0.019229
0.0192292
0.0192293
0.0192294
0.0192296
0.0192297
0.0192298
0.0192299
0.01923
0.0192301
0.0192302
0.0192303
0.0192304
0.0192305
0.0192306
0.0192307
0.0192307
0.0192308
0.0192309
0.0192309
0.019231
0.019231
0.0192311
0.0192311
0.0192311
0.0192312
0.0192312
0.0192313
0.0192313
0.0192313
0.0192313
0.0192314
0.0192314
0.0192314
0.0192314
0.0192314
0.0192314
0.0192314
0.0192314
0.0192314
0.0192314
0.0192314
0.0192314
0.0192314
0.0192314
0.0192314
0.0192314
0.0192314
0.0192314
0.0192313
0.0192313
0.0192313
0.0192312
0.0192312
0.0192312
0.0192311
0.0192311
0.0192311
0.019231
0.019231
0.0192309
0.0192309
0.0192308
0.0192307
0.0192307
0.0192306
0.0192305
0.0192304
0.0192304
0.0192303
0.0192302
0.0192301
0.01923
0.0192299
0.0192298
0.0192297
0.0192295
0.0192294
0.0192293
0.0192291
0.019229
0.0192288
0.0192287
0.0192285
0.0192283
0.0192281
0.0192279
0.0192277
0.0192275
0.0192272
0.019227
0.0192267
0.0192264
0.0192261
0.0192258
0.0192254
0.0192251
0.0192247
0.0192243
0.0192238
0.0192234
0.0192229
0.0192223
0.0192218
0.0192211
0.0192205
0.0192198
0.019219
0.0192182
0.0192172
0.0192162
0.0192151
0.0192139
0.0192125
0.019211
0.0192092
0.0192071
0.0192048
0.019202
0.0191988
0.019195
0.0191906
0.0191853
0.0191791
0.0191717
0.0191631
0.0191529
0.0191409
0.0191269
0.0191106
0.0190917
0.01907
0.0190451
0.0190168
0.0189848
0.0189487
0.0189084
0.0188635
0.018814
0.0187594
0.0186997
0.0186346
0.0209542
0.0210203
0.0210781
0.0211303
0.0211773
0.0212195
0.0212571
0.0212905
0.0213199
0.0213457
0.0213682
0.0213877
0.0214045
0.0214189
0.0214312
0.0214416
0.0214504
0.0214578
0.021464
0.0214693
0.0214737
0.0214774
0.0214805
0.0214831
0.0214853
0.0214872
0.0214889
0.0214903
0.0214916
0.0214927
0.0214937
0.0214946
0.0214954
0.0214961
0.0214968
0.0214974
0.021498
0.0214986
0.0214991
0.0214995
0.0215
0.0215004
0.0215008
0.0215011
0.0215015
0.0215018
0.0215021
0.0215024
0.0215027
0.0215029
0.0215032
0.0215034
0.0215036
0.0215038
0.021504
0.0215042
0.0215044
0.0215045
0.0215047
0.0215049
0.021505
0.0215051
0.0215053
0.0215054
0.0215055
0.0215056
0.0215057
0.0215058
0.0215059
0.021506
0.0215061
0.0215062
0.0215062
0.0215063
0.0215064
0.0215064
0.0215065
0.0215065
0.0215066
0.0215067
0.0215067
0.0215067
0.0215068
0.0215068
0.0215069
0.0215069
0.0215069
0.0215069
0.021507
0.021507
0.021507
0.021507
0.021507
0.021507
0.0215071
0.0215071
0.0215071
0.0215071
0.0215071
0.0215071
0.0215071
0.0215071
0.021507
0.021507
0.021507
0.021507
0.021507
0.021507
0.0215069
0.0215069
0.0215069
0.0215069
0.0215068
0.0215068
0.0215067
0.0215067
0.0215067
0.0215066
0.0215066
0.0215065
0.0215064
0.0215064
0.0215063
0.0215062
0.0215062
0.0215061
0.021506
0.0215059
0.0215059
0.0215058
0.0215057
0.0215056
0.0215055
0.0215053
0.0215052
0.0215051
0.021505
0.0215048
0.0215047
0.0215045
0.0215044
0.0215042
0.021504
0.0215038
0.0215036
0.0215034
0.0215032
0.021503
0.0215027
0.0215025
0.0215022
0.0215019
0.0215016
0.0215013
0.0215009
0.0215005
0.0215002
0.0214997
0.0214993
0.0214988
0.0214983
0.0214978
0.0214972
0.0214966
0.021496
0.0214953
0.0214945
0.0214937
0.0214928
0.0214918
0.0214906
0.0214894
0.0214879
0.0214863
0.0214844
0.0214823
0.0214797
0.0214767
0.0214732
0.021469
0.021464
0.0214581
0.021451
0.0214426
0.0214326
0.0214208
0.021407
0.0213908
0.021372
0.0213501
0.021325
0.0212962
0.0212635
0.0212265
0.0211849
0.0211383
0.0210865
0.0210292
0.0209661
0.0208968
0.023126
0.0231943
0.0232537
0.0233071
0.023355
0.0233978
0.0234358
0.0234693
0.0234988
0.0235245
0.0235468
0.023566
0.0235825
0.0235965
0.0236084
0.0236185
0.0236269
0.023634
0.0236399
0.0236448
0.0236489
0.0236524
0.0236552
0.0236576
0.0236597
0.0236614
0.0236629
0.0236642
0.0236653
0.0236663
0.0236672
0.023668
0.0236687
0.0236694
0.02367
0.0236705
0.0236711
0.0236716
0.023672
0.0236725
0.0236729
0.0236732
0.0236736
0.0236739
0.0236743
0.0236746
0.0236749
0.0236751
0.0236754
0.0236756
0.0236759
0.0236761
0.0236763
0.0236765
0.0236767
0.0236769
0.023677
0.0236772
0.0236773
0.0236775
0.0236776
0.0236777
0.0236779
0.023678
0.0236781
0.0236782
0.0236783
0.0236784
0.0236785
0.0236786
0.0236787
0.0236787
0.0236788
0.0236789
0.0236789
0.023679
0.0236791
0.0236791
0.0236792
0.0236792
0.0236793
0.0236793
0.0236793
0.0236794
0.0236794
0.0236795
0.0236795
0.0236795
0.0236795
0.0236796
0.0236796
0.0236796
0.0236796
0.0236796
0.0236796
0.0236796
0.0236796
0.0236796
0.0236796
0.0236796
0.0236796
0.0236796
0.0236796
0.0236796
0.0236796
0.0236796
0.0236795
0.0236795
0.0236795
0.0236795
0.0236794
0.0236794
0.0236794
0.0236793
0.0236793
0.0236793
0.0236792
0.0236792
0.0236791
0.0236791
0.023679
0.023679
0.0236789
0.0236788
0.0236788
0.0236787
0.0236786
0.0236785
0.0236784
0.0236784
0.0236783
0.0236782
0.0236781
0.0236779
0.0236778
0.0236777
0.0236776
0.0236774
0.0236773