/*--------------------------------*- C++ -*----------------------------------*\
| =========                 |                                                 |
| \\      /  F ield         | OpenFOAM: The Open Source CFD Toolbox           |
|  \\    /   O peration     | Version:  2412                                  |
|   \\  /    A nd           | Website:  www.openfoam.com                      |
|    \\/     M anipulation  |                                                 |
\*---------------------------------------------------------------------------*/
FoamFile
{
    version     2.0;
    format      ascii;
    arch        "LSB;label=32;scalar=64";
    class       surfaceScalarField;
    location    "200";
    object      phi;
}
// * * * * * * * * * * * * * * * * * * * * * * * * * * * * * * * * * * * * * //

dimensions      [0 3 -1 0 0 0 0];

oriented        oriented;

internalField   nonuniform List<scalar> 
79600
(
-2.90589e-12
2.90445e-12
-1.02838e-11
7.37933e-12
-1.96624e-11
9.37859e-12
-2.89737e-11
9.31117e-12
-3.69758e-11
8.00124e-12
-4.30661e-11
6.08817e-12
-4.70805e-11
4.01581e-12
-4.91391e-11
2.05841e-12
-4.95063e-11
3.67135e-13
-4.85139e-11
-9.93084e-13
-4.65011e-11
-2.01281e-12
-4.37836e-11
-2.71725e-12
-4.06342e-11
-3.1504e-12
-3.72714e-11
-3.3614e-12
-3.38695e-11
-3.40236e-12
-3.05502e-11
-3.31894e-12
-2.74007e-11
-3.15054e-12
-2.44731e-11
-2.92888e-12
-2.17936e-11
-2.67896e-12
-1.93731e-11
-2.42068e-12
-1.7207e-11
-2.1664e-12
-1.5283e-11
-1.9245e-12
-1.35834e-11
-1.70043e-12
-1.20885e-11
-1.49649e-12
-1.07762e-11
-1.31255e-12
-9.62634e-12
-1.14983e-12
-8.61884e-12
-1.00681e-12
-7.73727e-12
-8.82034e-13
-6.96457e-12
-7.73323e-13
-6.28621e-12
-6.78615e-13
-5.68919e-12
-5.96373e-13
-5.16318e-12
-5.25737e-13
-4.69806e-12
-4.64502e-13
-4.28555e-12
-4.11625e-13
-3.91988e-12
-3.66017e-13
-3.59272e-12
-3.2598e-13
-3.30212e-12
-2.91662e-13
-3.03876e-12
-2.60772e-13
-2.80592e-12
-2.35616e-13
-2.59244e-12
-2.11708e-13
-2.40142e-12
-1.91729e-13
-2.22892e-12
-1.74143e-13
-2.06962e-12
-1.57772e-13
-1.92621e-12
-1.44193e-13
-1.79624e-12
-1.3181e-13
-1.67565e-12
-1.19782e-13
-1.56533e-12
-1.09458e-13
-1.46502e-12
-1.00682e-13
-1.37236e-12
-9.24797e-14
-1.28641e-12
-8.50467e-14
-1.2073e-12
-7.88258e-14
-1.13428e-12
-7.33971e-14
-1.06641e-12
-6.82842e-14
-1.0034e-12
-6.34996e-14
-9.44953e-13
-5.90707e-14
-8.90503e-13
-5.48245e-14
-8.39648e-13
-5.075e-14
-7.92151e-13
-4.7065e-14
-7.47693e-13
-4.39685e-14
-7.05917e-13
-4.14331e-14
-6.66713e-13
-3.92513e-14
-6.30034e-13
-3.7135e-14
-5.95686e-13
-3.4916e-14
-5.63338e-13
-3.26411e-14
-5.32706e-13
-3.04991e-14
-5.03621e-13
-2.86823e-14
-4.76096e-13
-2.72629e-14
-4.50107e-13
-2.60816e-14
-4.25517e-13
-2.48831e-14
-4.02169e-13
-2.35646e-14
-3.79917e-13
-2.22013e-14
-3.58695e-13
-2.10383e-14
-3.38428e-13
-2.01146e-14
-3.1914e-13
-1.93828e-14
-3.0071e-13
-1.85809e-14
-2.83061e-13
-1.77291e-14
-2.66003e-13
-1.68925e-14
-2.49551e-13
-1.61966e-14
-2.33763e-13
-1.56286e-14
-2.18727e-13
-1.50612e-14
-2.04309e-13
-1.44552e-14
-1.90226e-13
-1.39063e-14
-1.76402e-13
-1.35176e-14
-1.62947e-13
-1.32743e-14
-1.49971e-13
-1.30184e-14
-1.37447e-13
-1.26014e-14
-1.25232e-13
-1.20745e-14
-1.13235e-13
-1.16188e-14
-1.01443e-13
-1.13641e-14
-8.98355e-14
-1.13383e-14
-7.8392e-14
-1.14452e-14
-6.71769e-14
-1.14707e-14
-5.62535e-14
-1.12345e-14
-4.54989e-14
-1.07789e-14
-3.46823e-14
-1.03757e-14
-2.37667e-14
-1.02956e-14
-1.29573e-14
-1.05383e-14
-2.4118e-15
-1.08249e-14
7.98372e-15
-1.0893e-14
1.84928e-14
-1.07556e-14
2.9229e-14
-1.06283e-14
4.00603e-14
-1.06691e-14
5.08096e-14
-1.08486e-14
6.14793e-14
-1.1019e-14
7.22613e-14
-1.10706e-14
8.33273e-14
-1.10453e-14
9.46507e-14
-1.10834e-14
1.06113e-13
-1.12701e-14
1.17707e-13
-1.15815e-14
1.29508e-13
-1.19345e-14
1.41563e-13
-1.2251e-14
1.53862e-13
-1.24975e-14
1.66424e-13
-1.26734e-14
1.79358e-13
-1.28337e-14
1.9279e-13
-1.3108e-14
2.06708e-13
-1.35979e-14
2.20998e-13
-1.42235e-14
2.35647e-13
-1.47641e-14
2.50791e-13
-1.50923e-14
2.66609e-13
-1.53557e-14
2.83159e-13
-1.58652e-14
3.00365e-13
-1.67449e-14
3.1819e-13
-1.77752e-14
3.36727e-13
-1.86428e-14
3.56153e-13
-1.92873e-14
3.76623e-13
-1.99516e-14
3.98138e-13
-2.08899e-14
4.20603e-13
-2.21096e-14
4.43999e-13
-2.34232e-14
4.68499e-13
-2.46654e-14
4.94429e-13
-2.58605e-14
5.21996e-13
-2.7182e-14
5.5113e-13
-2.87472e-14
5.81753e-13
-3.05184e-14
6.14012e-13
-3.23397e-14
6.4821e-13
-3.40827e-14
6.84676e-13
-3.59251e-14
7.23577e-13
-3.83102e-14
7.64862e-13
-4.13938e-14
8.08495e-13
-4.46893e-14
8.54703e-13
-4.74633e-14
9.04139e-13
-4.96103e-14
9.57667e-13
-5.20418e-14
1.01556e-12
-5.57743e-14
1.07744e-12
-6.07908e-14
1.1433e-12
-6.63481e-14
1.21385e-12
-7.19698e-14
1.28983e-12
-7.76309e-14
1.37185e-12
-8.33954e-14
1.46058e-12
-8.9271e-14
1.55698e-12
-9.55464e-14
1.6621e-12
-1.03002e-13
1.7765e-12
-1.12274e-13
1.90075e-12
-1.23256e-13
2.03604e-12
-1.35434e-13
2.1839e-12
-1.486e-13
2.346e-12
-1.63037e-13
2.52403e-12
-1.79049e-13
2.72e-12
-1.96852e-13
2.93634e-12
-2.16898e-13
3.1757e-12
-2.39707e-13
3.4413e-12
-2.65698e-13
3.73683e-12
-2.95326e-13
4.06651e-12
-3.29101e-13
4.43554e-12
-3.67809e-13
4.84999e-12
-4.12702e-13
5.31627e-12
-4.64967e-13
5.84198e-12
-5.25367e-13
6.43661e-12
-5.9479e-13
7.11097e-12
-6.74533e-13
7.87758e-12
-7.66449e-13
8.75101e-12
-8.72954e-13
9.74676e-12
-9.95939e-13
1.08826e-11
-1.13684e-12
1.21792e-11
-1.2974e-12
1.36578e-11
-1.47913e-12
1.53413e-11
-1.68353e-12
1.72529e-11
-1.91141e-12
1.94134e-11
-2.16119e-12
2.18417e-11
-2.42935e-12
2.45503e-11
-2.70963e-12
2.75415e-11
-2.99199e-12
3.08034e-11
-3.26201e-12
3.43016e-11
-3.49854e-12
3.79744e-11
-3.67333e-12
4.17237e-11
-3.75001e-12
4.54077e-11
-3.68443e-12
4.88342e-11
-3.42635e-12
5.17549e-11
-2.92072e-12
5.38691e-11
-2.11392e-12
5.48301e-11
-9.61158e-13
5.42684e-11
5.61376e-13
5.18295e-11
2.43838e-12
4.72366e-11
4.59243e-12
4.03854e-11
6.85106e-12
3.14791e-11
8.90658e-12
2.12115e-11
1.02679e-11
1.09695e-11
1.02406e-11
3.01453e-12
7.95097e-12
3.01091e-12
-8.15877e-12
1.10654e-11
-2.5471e-11
2.469e-11
-4.65909e-11
3.04996e-11
-6.75874e-11
3.03094e-11
-8.59273e-11
2.63432e-11
-1.00255e-10
2.04165e-11
-1.10091e-10
1.38527e-11
-1.15559e-10
7.52644e-12
-1.17143e-10
1.95085e-12
-1.15513e-10
-2.62177e-12
-1.11399e-10
-6.1262e-12
-1.05503e-10
-8.61267e-12
-9.84516e-11
-1.02017e-11
-9.07679e-11
-1.10453e-11
-8.28702e-11
-1.13003e-11
-7.50688e-11
-1.11178e-11
-6.7588e-11
-1.06296e-11
-6.05717e-11
-9.94373e-12
-5.41041e-11
-9.14669e-12
-4.82208e-11
-8.3034e-12
-4.29256e-11
-7.46045e-12
-3.8199e-11
-6.65102e-12
-3.40045e-11
-5.89285e-12
-3.03005e-11
-5.19855e-12
-2.70402e-11
-4.57237e-12
-2.41753e-11
-4.01415e-12
-2.16601e-11
-3.52054e-12
-1.94536e-11
-3.08819e-12
-1.7516e-11
-2.71061e-12
-1.58128e-11
-2.38218e-12
-1.43138e-11
-2.09752e-12
-1.29907e-11
-1.85002e-12
-1.18204e-11
-1.63593e-12
-1.0783e-11
-1.44975e-12
-9.86073e-12
-1.28962e-12
-9.03848e-12
-1.14865e-12
-8.30344e-12
-1.02714e-12
-7.64499e-12
-9.2052e-13
-7.05249e-12
-8.27212e-13
-6.51815e-12
-7.45508e-13
-6.03637e-12
-6.74287e-13
-5.59948e-12
-6.11075e-13
-5.20194e-12
-5.54348e-13
-4.8405e-12
-5.04915e-13
-4.5107e-12
-4.61411e-13
-4.20885e-12
-4.22194e-13
-3.93275e-12
-3.87153e-13
-3.67918e-12
-3.55641e-13
-3.44563e-12
-3.27044e-13
-3.23049e-12
-3.01296e-13
-3.03178e-12
-2.78127e-13
-2.84756e-12
-2.57131e-13
-2.67678e-12
-2.3826e-13
-2.51852e-12
-2.21399e-13
-2.37145e-12
-2.0614e-13
-2.23444e-12
-1.92151e-13
-2.10678e-12
-1.79327e-13
-1.9877e-12
-1.67495e-13
-1.87618e-12
-1.56469e-13
-1.77142e-12
-1.46297e-13
-1.67301e-12
-1.37163e-13
-1.58071e-12
-1.29059e-13
-1.49413e-12
-1.21755e-13
-1.41271e-12
-1.14917e-13
-1.33589e-12
-1.08347e-13
-1.26322e-12
-1.02101e-13
-1.19433e-12
-9.63638e-14
-1.12896e-12
-9.1256e-14
-1.06696e-12
-8.67114e-14
-1.00821e-12
-8.2562e-14
-9.52539e-13
-7.85785e-14
-8.99522e-13
-7.47219e-14
-8.48824e-13
-7.10915e-14
-8.00255e-13
-6.78518e-14
-7.53816e-13
-6.49562e-14
-7.09446e-13
-6.23084e-14
-6.66838e-13
-5.97015e-14
-6.25846e-13
-5.7268e-14
-5.8636e-13
-5.51026e-14
-5.4846e-13
-5.32349e-14
-5.12071e-13
-5.1494e-14
-4.76796e-13
-4.96498e-14
-4.42415e-13
-4.78547e-14
-4.0886e-13
-4.63236e-14
-3.76142e-13
-4.50864e-14
-3.44421e-13
-4.41046e-14
-3.13723e-13
-4.32229e-14
-2.83866e-13
-4.22649e-14
-2.54645e-13
-4.12232e-14
-2.25808e-13
-4.02087e-14
-1.97144e-13
-3.93927e-14
-1.68766e-13
-3.89584e-14
-1.40985e-13
-3.88552e-14
-1.13852e-13
-3.87287e-14
-8.7069e-14
-3.83081e-14
-6.03287e-14
-3.77326e-14
-3.3559e-14
-3.73618e-14
-6.86769e-15
-3.73583e-14
1.96807e-14
-3.75457e-14
4.6199e-14
-3.76551e-14
7.28429e-14
-3.7639e-14
9.9636e-14
-3.76896e-14
1.26542e-13
-3.79888e-14
1.53607e-13
-3.84976e-14
1.80958e-13
-3.90155e-14
2.08701e-13
-3.94312e-14
2.36853e-13
-3.98166e-14
2.65405e-13
-4.02802e-14
2.94456e-13
-4.08575e-14
3.24144e-13
-4.15679e-14
3.5452e-13
-4.24519e-14
3.85575e-13
-4.35313e-14
4.17309e-13
-4.47211e-14
4.49816e-13
-4.58573e-14
4.8333e-13
-4.69076e-14
5.18065e-13
-4.80768e-14
5.54057e-13
-4.96076e-14
5.91215e-13
-5.15028e-14
6.29476e-13
-5.35129e-14
6.68976e-13
-5.54163e-14
7.10066e-13
-5.72812e-14
7.53079e-13
-5.93902e-14
7.9813e-13
-6.19401e-14
8.45141e-13
-6.48713e-14
8.94069e-13
-6.79655e-14
9.45113e-13
-7.10939e-14
9.98595e-13
-7.4355e-14
1.05476e-12
-7.79753e-14
1.11375e-12
-8.20912e-14
1.17571e-12
-8.6596e-14
1.24098e-12
-9.12822e-14
1.30995e-12
-9.61566e-14
1.38287e-12
-1.0146e-13
1.4599e-12
-1.07412e-13
1.54125e-12
-1.13997e-13
1.62711e-12
-1.20928e-13
1.71797e-12
-1.27953e-13
1.81479e-12
-1.35296e-13
1.91853e-12
-1.43638e-13
2.02954e-12
-1.53581e-13
2.14758e-12
-1.6497e-13
2.27264e-12
-1.76861e-13
2.40593e-12
-1.88629e-13
2.54921e-12
-2.0085e-13
2.70346e-12
-2.14571e-13
2.86934e-12
-2.30284e-13
3.04803e-12
-2.48058e-13
3.24079e-12
-2.68055e-13
3.44872e-12
-2.90475e-13
3.67292e-12
-3.15075e-13
3.91516e-12
-3.4136e-13
4.17818e-12
-3.69548e-13
4.46472e-12
-4.00693e-13
4.77722e-12
-4.35808e-13
5.11827e-12
-4.75432e-13
5.49109e-12
-5.19969e-13
5.89975e-12
-5.70061e-13
6.3488e-12
-6.26496e-13
6.84314e-12
-6.90116e-13
7.38873e-12
-7.62016e-13
7.99252e-12
-8.43489e-13
8.66257e-12
-9.36074e-13
9.40815e-12
-1.04174e-12
1.02397e-11
-1.16244e-12
1.11697e-11
-1.30019e-12
1.22132e-11
-1.45799e-12
1.33873e-11
-1.63975e-12
1.47115e-11
-1.84953e-12
1.62086e-11
-2.09177e-12
1.79048e-11
-2.37118e-12
1.98303e-11
-2.69269e-12
2.20206e-11
-3.06265e-12
2.45146e-11
-3.48801e-12
2.73548e-11
-3.97498e-12
3.05887e-11
-4.5294e-12
3.4266e-11
-5.15565e-12
3.84387e-11
-5.85595e-12
4.31587e-11
-6.63019e-12
4.84715e-11
-7.47278e-12
5.44132e-11
-8.37027e-12
6.10028e-11
-9.29905e-12
6.82319e-11
-1.02218e-11
7.60547e-11
-1.1085e-11
8.43714e-11
-1.18149e-11
9.30135e-11
-1.23147e-11
1.01727e-10
-1.24627e-11
1.10156e-10
-1.21132e-11
1.17833e-10
-1.11027e-11
1.24171e-10
-9.25915e-12
1.28478e-10
-6.42153e-12
1.29985e-10
-2.46733e-12
1.27899e-10
2.647e-12
1.21506e-10
8.83116e-12
1.10307e-10
1.5791e-11
9.42146e-11
2.29421e-11
7.38074e-11
2.93125e-11
5.06308e-11
3.34463e-11
2.7502e-11
3.33755e-11
8.72131e-12
2.67395e-11
1.17299e-11
-1.12685e-11
2.23354e-11
-3.44036e-11
4.78284e-11
-6.22643e-11
5.83619e-11
-8.99993e-11
5.80464e-11
-1.14464e-10
5.08092e-11
-1.33899e-10
3.98516e-11
-1.47603e-10
2.75569e-11
-1.55629e-10
1.55529e-11
-1.58515e-10
4.83792e-12
-1.57069e-10
-4.06841e-12
-1.52203e-10
-1.09933e-11
-1.44821e-10
-1.59956e-11
-1.35748e-10
-1.92757e-11
-1.25686e-10
-2.11045e-11
-1.15212e-10
-2.17754e-11
-1.04761e-10
-2.15699e-11
-9.46518e-11
-2.07388e-11
-8.51012e-11
-1.94952e-11
-7.62406e-11
-1.80089e-11
-6.81342e-11
-1.641e-11
-6.08024e-11
-1.47938e-11
-5.42265e-11
-1.32271e-11
-4.83677e-11
-1.17515e-11
-4.31755e-11
-1.03922e-11
-3.85888e-11
-9.15935e-12
-3.45465e-11
-8.05561e-12
-3.099e-11
-7.07764e-12
-2.78613e-11
-6.21662e-12
-2.51083e-11
-5.46307e-12
-2.26841e-11
-4.80611e-12
-2.0546e-11
-4.23508e-12
-1.86571e-11
-3.73876e-12
-1.69838e-11
-3.30768e-12
-1.55006e-11
-2.93472e-12
-1.41775e-11
-2.60911e-12
-1.30004e-11
-2.32757e-12
-1.19448e-11
-2.08166e-12
-1.10005e-11
-1.86693e-12
-1.01491e-11
-1.67782e-12
-9.38294e-12
-1.51331e-12
-8.68995e-12
-1.36735e-12
-8.06061e-12
-1.23895e-12
-7.49013e-12
-1.12653e-12
-6.97061e-12
-1.02546e-12
-6.49567e-12
-9.35005e-13
-6.06168e-12
-8.55386e-13
-5.6641e-12
-7.84485e-13
-5.29855e-12
-7.20464e-13
-4.96242e-12
-6.63027e-13
-4.65297e-12
-6.11569e-13
-4.36694e-12
-5.64945e-13
-4.10203e-12
-5.22584e-13
-3.85661e-12
-4.84274e-13
-3.62881e-12
-4.49522e-13
-3.41677e-12
-4.17796e-13
-3.21922e-12
-3.88937e-13
-3.03512e-12
-3.62859e-13
-2.86332e-12
-3.39224e-13
-2.7027e-12
-3.17541e-13
-2.5522e-12
-2.97483e-13
-2.41095e-12
-2.78953e-13
-2.27818e-12
-2.61961e-13
-2.15321e-12
-2.46444e-13
-2.03546e-12
-2.32268e-13
-1.9245e-12
-2.19246e-13
-1.81984e-12
-2.07175e-13
-1.72085e-12
-1.95921e-13
-1.62693e-12
-1.85436e-13
-1.53772e-12
-1.75846e-13
-1.45296e-12
-1.67098e-13
-1.37251e-12
-1.59119e-13
-1.296e-12
-1.51594e-13
-1.22303e-12
-1.44465e-13
-1.1532e-12
-1.37816e-13
-1.08635e-12
-1.31753e-13
-1.02226e-12
-1.26279e-13
-9.60852e-13
-1.21181e-13
-9.01911e-13
-1.16352e-13
-8.45209e-13
-1.11881e-13
-7.90538e-13
-1.0784e-13
-7.37713e-13
-1.04218e-13
-6.8668e-13
-1.00858e-13
-6.37275e-13
-9.762e-14
-5.89212e-13
-9.45217e-14
-5.42356e-13
-9.16798e-14
-4.96705e-13
-8.92236e-14
-4.5224e-13
-8.72052e-14
-4.08905e-13
-8.55267e-14
-3.66582e-13
-8.39606e-14
-3.25054e-13
-8.23002e-14
-2.84113e-13
-8.05813e-14
-2.43639e-13
-7.90987e-14
-2.03614e-13
-7.81083e-14
-1.64101e-13
-7.75594e-14
-1.25158e-13
-7.71667e-14
-8.6682e-14
-7.66992e-14
-4.83969e-14
-7.61777e-14
-1.00558e-14
-7.58068e-14
2.83813e-14
-7.5722e-14
6.68204e-14
-7.5862e-14
1.05207e-13
-7.61048e-14
1.43623e-13
-7.64207e-14
1.82288e-13
-7.68615e-14
2.2142e-13
-7.74805e-14
2.61055e-13
-7.82822e-14
3.0114e-13
-7.92505e-14
3.41706e-13
-8.03853e-14
3.82876e-13
-8.16672e-14
4.24789e-13
-8.30484e-14
4.67553e-13
-8.45201e-14
5.11241e-13
-8.61519e-14
5.55984e-13
-8.80536e-14
6.01913e-13
-9.02973e-14
6.49049e-13
-9.28146e-14
6.97438e-13
-9.545e-14
7.47288e-13
-9.81464e-14
7.98896e-13
-1.01033e-13
8.52447e-13
-1.04333e-13
9.079e-13
-1.08167e-13
9.65176e-13
-1.12427e-13
1.02448e-12
-1.16894e-13
1.08628e-12
-1.21485e-13
1.15099e-12
-1.26363e-13
1.21873e-12
-1.31791e-13
1.28945e-12
-1.37871e-13
1.36318e-12
-1.44483e-13
1.4402e-12
-1.51485e-13
1.52095e-12
-1.58901e-13
1.60594e-12
-1.66919e-13
1.6955e-12
-1.7568e-13
1.7898e-12
-1.85155e-13
1.88909e-12
-1.95284e-13
1.99382e-12
-2.06109e-13
2.10461e-12
-2.17788e-13
2.2221e-12
-2.30621e-13
2.34657e-12
-2.44829e-13
2.47819e-12
-2.60235e-13
2.6176e-12
-2.76414e-13
2.76603e-12
-2.93296e-13
2.92483e-12
-3.11596e-13
3.09491e-12
-3.3237e-13
3.27645e-12
-3.55917e-13
3.46987e-12
-3.8162e-13
3.6767e-12
-4.09074e-13
3.89871e-12
-4.38608e-13
4.13732e-12
-4.70735e-13
4.39401e-12
-5.05863e-13
4.6707e-12
-5.44542e-13
4.96976e-12
-5.87616e-13
5.29345e-12
-6.35864e-13
5.64374e-12
-6.89555e-13
6.02337e-12
-7.48787e-13
6.43602e-12
-8.14099e-13
6.88572e-12
-8.86534e-13
7.3766e-12
-9.67348e-13
7.91324e-12
-1.05773e-12
8.50133e-12
-1.15898e-12
9.14734e-12
-1.27283e-12
9.85837e-12
-1.40127e-12
1.06429e-11
-1.54648e-12
1.15109e-11
-1.71097e-12
1.24736e-11
-1.89779e-12
1.35445e-11
-2.11082e-12
1.47388e-11
-2.35454e-12
1.60735e-11
-2.63368e-12
1.75692e-11
-2.95364e-12
1.92502e-11
-3.32102e-12
2.11443e-11
-3.74356e-12
2.32832e-11
-4.23037e-12
2.57039e-11
-4.79144e-12
2.84473e-11
-5.43693e-12
3.15611e-11
-6.17804e-12
3.50992e-11
-7.02695e-12
3.91193e-11
-7.99543e-12
4.36848e-11
-9.09455e-12
4.88619e-11
-1.03324e-11
5.47168e-11
-1.17119e-11
6.13148e-11
-1.32295e-11
6.87118e-11
-1.48708e-11
7.69475e-11
-1.66067e-11
8.60359e-11
-1.83877e-11
9.59507e-11
-2.01374e-11
1.06611e-10
-2.17467e-11
1.17863e-10
-2.30677e-11
1.29457e-10
-2.39091e-11
1.4103e-10
-2.40348e-11
1.52083e-10
-2.31661e-11
1.61975e-10
-2.09947e-11
1.69919e-10
-1.72039e-11
1.75004e-10
-1.15067e-11
1.76237e-10
-3.70092e-12
1.72629e-10
6.25492e-12
1.6332e-10
1.81405e-11
1.47759e-10
3.13512e-11
1.25946e-10
4.47555e-11
9.87098e-11
5.65461e-11
6.80421e-11
6.41092e-11
3.74331e-11
6.39814e-11
1.2189e-11
5.19876e-11
2.39184e-11
-1.24005e-11
3.47344e-11
-3.79072e-11
7.33347e-11
-6.86581e-11
8.91121e-11
-9.9407e-11
8.87955e-11
-1.2677e-10
7.81712e-11
-1.48815e-10
6.18954e-11
-1.64712e-10
4.34565e-11
-1.7444e-10
2.52789e-11
-1.785e-10
8.89729e-12
-1.77707e-10
-4.86055e-12
-1.73017e-10
-1.5682e-11
-1.65397e-10
-2.36146e-11
-1.55747e-10
-2.89259e-11
-1.44849e-10
-3.20014e-11
-1.33352e-10
-3.32727e-11
-1.21759e-10
-3.31611e-11
-1.10447e-10
-3.20496e-11
-9.96768e-11
-3.02642e-11
-8.96159e-11
-2.80687e-11
-8.03552e-11
-2.56701e-11
-7.19315e-11
-2.32189e-11
-6.43378e-11
-2.08215e-11
-5.75396e-11
-1.85487e-11
-5.14881e-11
-1.64434e-11
-4.61209e-11
-1.45257e-11
-4.13741e-11
-1.28025e-11
-3.71823e-11
-1.12693e-11
-3.34835e-11
-9.91563e-12
-3.02196e-11
-8.72685e-12
-2.7338e-11
-7.68904e-12
-2.47898e-11
-6.78268e-12
-2.25335e-11
-5.99538e-12
-2.05331e-11
-5.3104e-12
-1.8753e-11
-4.7141e-12
-1.71673e-11
-4.19551e-12
-1.5751e-11
-3.74408e-12
-1.44807e-11
-3.34966e-12
-1.33414e-11
-3.00587e-12
-1.23157e-11
-2.70404e-12
-1.13894e-11
-2.43917e-12
-1.05524e-11
-2.20549e-12
-9.79296e-12
-1.99853e-12
-9.10164e-12
-1.81637e-12
-8.47187e-12
-1.65503e-12
-7.8976e-12
-1.51087e-12
-7.37217e-12
-1.38194e-12
-6.88971e-12
-1.26656e-12
-6.44631e-12
-1.16325e-12
-6.03865e-12
-1.0707e-12
-5.66275e-12
-9.87395e-13
-5.31516e-12
-9.12098e-13
-4.99353e-12
-8.44135e-13
-4.69552e-12
-7.8269e-13
-4.4187e-12
-7.26765e-13
-4.16113e-12
-6.75675e-13
-3.92129e-12
-6.29063e-13
-3.69755e-12
-5.86604e-13
-3.4884e-12
-5.47987e-13
-3.29269e-12
-5.12844e-13
-3.10946e-12
-4.80746e-13
-2.93769e-12
-4.51259e-13
-2.7763e-12
-4.24022e-13
-2.62432e-12
-3.98823e-13
-2.48101e-12
-3.75593e-13
-2.3458e-12
-3.54322e-13
-2.21817e-12
-3.34844e-13
-2.09747e-12
-3.169e-13
-1.98318e-12
-3.00262e-13
-1.87466e-12
-2.84788e-13
-1.77156e-12
-2.70493e-13
-1.6734e-12
-2.57324e-13
-1.57997e-12
-2.45157e-13
-1.49098e-12
-2.33863e-13
-1.40597e-12
-2.23278e-13
-1.32463e-12
-2.13526e-13
-1.24648e-12
-2.04524e-13
-1.17151e-12
-1.96301e-13
-1.09965e-12
-1.887e-13
-1.03062e-12
-1.81559e-13
-9.64061e-13
-1.74878e-13
-8.99603e-13
-1.68727e-13
-8.3718e-13
-1.63196e-13
-7.7677e-13
-1.58177e-13
-7.18141e-13
-1.53501e-13
-6.6114e-13
-1.49139e-13
-6.05686e-13
-1.45103e-13
-5.51605e-13
-1.41442e-13
-4.98679e-13
-1.38253e-13
-4.46751e-13
-1.35535e-13
-3.95796e-13
-1.33136e-13
-3.45849e-13
-1.30907e-13
-2.96766e-13
-1.28806e-13
-2.48221e-13
-1.26926e-13
-2.00026e-13
-1.25436e-13
-1.52279e-13
-1.24408e-13
-1.05103e-13
-1.23715e-13
-5.83575e-14
-1.23155e-13
-1.16838e-14
-1.22666e-13
3.51606e-14
-1.22366e-13
8.21235e-14
-1.22402e-13
1.29053e-13
-1.2282e-13
1.75981e-13
-1.23523e-13
2.23183e-13
-1.24372e-13
2.70948e-13
-1.25325e-13
3.19324e-13
-1.26475e-13
3.68234e-13
-1.27918e-13
4.17749e-13
-1.29695e-13
4.68062e-13
-1.31792e-13
5.19316e-13
-1.34176e-13
5.71563e-13
-1.36822e-13
6.24847e-13
-1.39704e-13
6.79347e-13
-1.42818e-13
7.35344e-13
-1.46254e-13
7.9298e-13
-1.50151e-13
8.52247e-13
-1.54544e-13
9.13202e-13
-1.59322e-13
9.76063e-13
-1.6435e-13
1.04113e-12
-1.69674e-13
1.10863e-12
-1.75537e-13
1.17863e-12
-1.82139e-13
1.25128e-12
-1.89429e-13
1.32682e-12
-1.972e-13
1.40561e-12
-2.05364e-13
1.48799e-12
-2.14083e-13
1.57415e-12
-2.23616e-13
1.66417e-12
-2.34097e-13
1.75821e-12
-2.45489e-13
1.85666e-12
-2.57687e-13
1.96018e-12
-2.70682e-13
2.06937e-12
-2.84645e-13
2.18446e-12
-2.99795e-13
2.30563e-12
-3.16259e-13
2.43328e-12
-3.34011e-13
2.56801e-12
-3.52946e-13
2.71067e-12
-3.73228e-13
2.86214e-12
-3.954e-13
3.02303e-12
-4.19939e-13
3.19379e-12
-4.46819e-13
3.37498e-12
-4.75615e-13
3.56769e-12
-5.06136e-13
3.77364e-12
-5.39021e-13
3.99414e-12
-5.75323e-13
4.22982e-12
-6.15571e-13
4.48189e-12
-6.59792e-13
4.75234e-12
-7.08154e-13
5.04304e-12
-7.61103e-13
5.35557e-12
-8.19137e-13
5.69183e-12
-8.82645e-13
6.05458e-12
-9.52195e-13
6.44716e-12
-1.02893e-12
6.87254e-12
-1.11418e-12
7.33379e-12
-1.20898e-12
7.83487e-12
-1.31423e-12
8.38041e-12
-1.43124e-12
8.97563e-12
-1.56177e-12
9.62624e-12
-1.70774e-12
1.03388e-11
-1.87122e-12
1.1121e-11
-2.05487e-12
1.19814e-11
-2.26184e-12
1.29302e-11
-2.49564e-12
1.39789e-11
-2.76041e-12
1.51409e-11
-3.06082e-12
1.64318e-11
-3.40247e-12
1.787e-11
-3.7924e-12
1.94758e-11
-4.23872e-12
2.12729e-11
-4.75029e-12
2.32891e-11
-5.33728e-12
2.55566e-11
-6.01136e-12
2.8112e-11
-6.78595e-12
3.09983e-11
-7.67659e-12
3.42622e-11
-8.69974e-12
3.7957e-11
-9.87241e-12
4.21428e-11
-1.12123e-11
4.68838e-11
-1.27364e-11
5.22497e-11
-1.44599e-11
5.83127e-11
-1.63939e-11
6.51425e-11
-1.85411e-11
7.28056e-11
-2.08926e-11
8.13566e-11
-2.34221e-11
9.08286e-11
-2.60794e-11
1.01224e-10
-2.8783e-11
1.12496e-10
-3.14096e-11
1.24536e-10
-3.3786e-11
1.37147e-10
-3.56793e-11
1.5003e-10
-3.6792e-11
1.62756e-10
-3.67608e-11
1.74753e-10
-3.51629e-11
1.85296e-10
-3.1537e-11
1.9351e-10
-2.5418e-11
1.984e-10
-1.63969e-11
1.98904e-10
-4.20461e-12
1.93984e-10
1.11736e-11
1.82772e-10
2.93522e-11
1.64752e-10
4.93713e-11
1.40008e-10
6.95017e-11
1.09507e-10
8.70498e-11
7.54245e-11
9.81913e-11
4.15132e-11
9.78897e-11
1.35253e-11
7.99767e-11
3.74438e-11
-1.21262e-11
4.68609e-11
-3.7356e-11
9.85643e-11
-6.79915e-11
1.19746e-10
-9.88485e-11
1.19653e-10
-1.26575e-10
1.05898e-10
-1.49227e-10
8.45443e-11
-1.6592e-10
6.01485e-11
-1.76553e-10
3.59123e-11
-1.8155e-10
1.38929e-11
-1.8165e-10
-4.76054e-12
-1.77753e-10
-1.95815e-11
-1.70788e-10
-3.05805e-11
-1.61635e-10
-3.8077e-11
-1.51078e-10
-4.25591e-11
-1.39769e-10
-4.45817e-11
-1.2823e-10
-4.46999e-11
-1.1686e-10
-4.34215e-11
-1.05939e-10
-4.11855e-11
-9.56575e-11
-3.83512e-11
-8.61266e-11
-3.52009e-11
-7.73984e-11
-3.19452e-11
-6.94835e-11
-2.87368e-11
-6.23573e-11
-2.56746e-11
-5.59793e-11
-2.28215e-11
-5.02945e-11
-2.02102e-11
-4.52431e-11
-1.78541e-11
-4.07625e-11
-1.57492e-11
-3.67926e-11
-1.38846e-11
-3.32776e-11
-1.22436e-11
-3.01608e-11
-1.08033e-11
-2.73984e-11
-9.54592e-12
-2.49437e-11
-8.44894e-12
-2.27607e-11
-7.49284e-12
-2.08141e-11
-6.6604e-12
-1.90769e-11
-5.93466e-12
-1.75199e-11
-5.30036e-12
-1.61242e-11
-4.74692e-12
-1.4867e-11
-4.26098e-12
-1.37354e-11
-3.83639e-12
-1.27109e-11
-3.46192e-12
-1.17831e-11
-3.13236e-12
-1.09426e-11
-2.84158e-12
-1.0176e-11
-2.58243e-12
-9.47596e-12
-2.35255e-12
-8.83743e-12
-2.14913e-12
-8.25283e-12
-1.96715e-12
-7.71576e-12
-1.80348e-12
-7.22218e-12
-1.65687e-12
-6.76783e-12
-1.52541e-12
-6.34834e-12
-1.40683e-12
-5.96045e-12
-1.29972e-12
-5.60136e-12
-1.20299e-12
-5.2682e-12
-1.11538e-12
-4.9585e-12
-1.03577e-12
-4.67044e-12
-9.63369e-13
-4.40228e-12
-8.97432e-13
-4.15211e-12
-8.37191e-13
-3.91811e-12
-7.8206e-13
-3.69897e-12
-7.3171e-13
-3.49359e-12
-6.85765e-13
-3.30089e-12
-6.43727e-13
-3.1198e-12
-6.05072e-13
-2.94938e-12
-5.69366e-13
-2.7888e-12
-5.36405e-13
-2.63726e-12
-5.06007e-13
-2.49403e-12
-4.78102e-13
-2.35844e-12
-4.52438e-13
-2.22999e-12
-4.28831e-13
-2.10818e-12
-4.06955e-13
-1.99242e-12
-3.86604e-13
-1.88219e-12
-3.67697e-13
-1.77716e-12
-3.50221e-13
-1.67702e-12
-3.34119e-13
-1.58151e-12
-3.19242e-13
-1.49009e-12
-3.05406e-13
-1.40233e-12
-2.92529e-13
-1.31803e-12
-2.80692e-13
-1.23709e-12
-2.69854e-13
-1.15933e-12
-2.59798e-13
-1.08444e-12
-2.50393e-13
-1.01205e-12
-2.41602e-13
-9.4189e-13
-2.3351e-13
-8.73846e-13
-2.26178e-13
-8.07774e-13
-2.19521e-13
-7.4354e-13
-2.13459e-13
-6.81085e-13
-2.07939e-13
-6.20286e-13
-2.0284e-13
-5.60823e-13
-1.98074e-13
-5.02378e-13
-1.93729e-13
-4.44895e-13
-1.89988e-13
-3.88491e-13
-1.86883e-13
-3.33128e-13
-1.84213e-13
-2.7853e-13
-1.81766e-13
-2.24418e-13
-1.79556e-13
-1.707e-13
-1.77763e-13
-1.17423e-13
-1.76496e-13
-6.45622e-14
-1.75658e-13
-1.19037e-14
-1.75074e-13
4.07833e-14
-1.74705e-13
9.35557e-14
-1.7468e-13
1.46397e-13
-1.75137e-13
1.99394e-13
-1.76058e-13
2.52745e-13
-1.77299e-13
3.0663e-13
-1.78777e-13
3.61104e-13
-1.80551e-13
4.16163e-13
-1.82701e-13
4.71934e-13
-1.85237e-13
5.28629e-13
-1.8816e-13
5.86398e-13
-1.91507e-13
6.45319e-13
-1.95339e-13
7.05442e-13
-1.99655e-13
7.66875e-13
-2.04358e-13
8.29856e-13
-2.09393e-13
8.94643e-13
-2.14877e-13
9.61403e-13
-2.20995e-13
1.03024e-12
-2.27825e-13
1.1012e-12
-2.35283e-13
1.17441e-12
-2.4325e-13
1.25016e-12
-2.51765e-13
1.32882e-12
-2.61014e-13
1.41067e-12
-2.7115e-13
1.49591e-12
-2.82191e-13
1.58467e-12
-2.94055e-13
1.67725e-12
-3.06721e-13
1.77399e-12
-3.20321e-13
1.87513e-12
-3.35072e-13
1.98095e-12
-3.51139e-13
2.0918e-12
-3.68522e-13
2.20822e-12
-3.87132e-13
2.33082e-12
-4.07036e-13
2.46002e-12
-4.28491e-13
2.59623e-12
-4.51794e-13
2.73994e-12
-4.77148e-13
2.89153e-12
-5.04542e-13
3.05154e-12
-5.33886e-13
3.22098e-12
-5.65341e-13
3.4011e-12
-5.9944e-13
3.59289e-12
-6.36875e-13
3.7969e-12
-6.78015e-13
4.0136e-12
-7.22661e-13
4.24432e-12
-7.70672e-13
4.4909e-12
-8.22657e-13
4.75463e-12
-8.7952e-13
5.0368e-12
-9.4182e-13
5.33937e-12
-1.01e-12
5.66451e-12
-1.08481e-12
6.01431e-12
-1.16727e-12
6.39079e-12
-1.25817e-12
6.79643e-12
-1.35804e-12
7.23463e-12
-1.46782e-12
7.70912e-12
-1.58908e-12
8.22365e-12
-1.72351e-12
8.78237e-12
-1.8728e-12
9.39007e-12
-2.03882e-12
1.00525e-11
-2.22388e-12
1.07762e-11
-2.43072e-12
1.1568e-11
-2.66238e-12
1.24362e-11
-2.9225e-12
1.33903e-11
-3.21529e-12
1.44413e-11
-3.54573e-12
1.56017e-11
-3.9198e-12
1.68857e-11
-4.34418e-12
1.83096e-11
-4.82639e-12
1.98928e-11
-5.37565e-12
2.16574e-11
-6.00297e-12
2.36284e-11
-6.72076e-12
2.58349e-11
-7.54334e-12
2.83101e-11
-8.48672e-12
3.10916e-11
-9.5685e-12
3.42235e-11
-1.0809e-11
3.77544e-11
-1.22304e-11
4.17377e-11
-1.38555e-11
4.62334e-11
-1.57075e-11
5.1305e-11
-1.78081e-11
5.70197e-11
-2.01751e-11
6.34471e-11
-2.28209e-11
7.06523e-11
-2.57461e-11
7.86944e-11
-2.89345e-11
8.76181e-11
-3.23458e-11
9.74438e-11
-3.5906e-11
1.08158e-10
-3.94977e-11
1.19696e-10
-4.29477e-11
1.31925e-10
-4.60154e-11
1.44628e-10
-4.83817e-11
1.57478e-10
-4.96422e-11
1.70026e-10
-4.93082e-11
1.81681e-10
-4.68175e-11
1.91707e-10
-4.15632e-11
1.99234e-10
-3.29451e-11
2.03286e-10
-2.0448e-11
2.02837e-10
-3.75581e-12
1.96912e-10
1.70991e-11
1.84715e-10
4.15486e-11
1.65814e-10
6.827e-11
1.4037e-10
9.49447e-11
1.09402e-10
1.1802e-10
7.50945e-11
1.325e-10
4.1167e-11
1.31816e-10
1.33252e-11
1.07819e-10
5.07691e-11
-1.09287e-11
5.77903e-11
-3.4002e-11
1.21639e-10
-6.23007e-11
1.48044e-10
-9.10777e-11
1.48429e-10
-1.17227e-10
1.32048e-10
-1.38916e-10
1.06233e-10
-1.55263e-10
7.64988e-11
-1.66104e-10
4.67511e-11
-1.71749e-10
1.95366e-11
-1.72814e-10
-3.69454e-12
-1.70076e-10
-2.23179e-11
-1.6436e-10
-3.62971e-11
-1.56458e-10
-4.59789e-11
-1.47089e-10
-5.19288e-11
-1.36863e-10
-5.48073e-11
-1.2628e-10
-5.52841e-11
-1.15724e-10
-5.39777e-11
-1.05481e-10
-5.1429e-11
-9.5746e-11
-4.80862e-11
-8.66442e-11
-4.4303e-11
-7.82434e-11
-4.03472e-11
-7.05669e-11
-3.64135e-11
-6.36071e-11
-3.26336e-11
-5.73363e-11
-2.90912e-11
-5.17133e-11
-2.58344e-11
-4.66859e-11
-2.28801e-11
-4.22026e-11
-2.02324e-11
-3.82103e-11
-1.78778e-11
-3.46554e-11
-1.57972e-11
-3.14925e-11
-1.39677e-11
-2.86749e-11
-1.23642e-11
-2.61624e-11
-1.09611e-11
-2.39198e-11
-9.7358e-12
-2.19133e-11
-8.66603e-12
-2.0116e-11
-7.73132e-12
-1.85021e-11
-6.91403e-12
-1.70499e-11
-6.19879e-12
-1.57412e-11
-5.57053e-12
-1.45583e-11
-5.01928e-12
-1.34867e-11
-4.53326e-12
-1.25146e-11
-4.10408e-12
-1.16306e-11
-3.72531e-12
-1.08245e-11
-3.38888e-12
-1.00883e-11
-3.08918e-12
-9.41459e-12
-2.82234e-12
-8.79651e-12
-2.58404e-12
-8.22895e-12
-2.37066e-12
-7.70701e-12
-2.17924e-12
-7.22561e-12
-2.00695e-12
-6.78082e-12
-1.85158e-12
-6.36949e-12
-1.71139e-12
-5.98828e-12
-1.58451e-12
-5.63414e-12
-1.46929e-12
-5.30477e-12
-1.36455e-12
-4.99825e-12
-1.26942e-12
-4.71261e-12
-1.18289e-12
-4.44599e-12
-1.10394e-12
-4.19669e-12
-1.03172e-12
-3.96319e-12
-9.6558e-13
-3.74414e-12
-9.05001e-13
-3.53834e-12
-8.4943e-13
-3.34473e-12
-7.98406e-13
-3.16253e-12
-7.51495e-13
-2.99087e-12
-7.08291e-13
-2.82895e-12
-6.6846e-13
-2.67581e-12
-6.31673e-13
-2.53078e-12
-5.97792e-13
-2.39321e-12
-5.66588e-13
-2.26264e-12
-5.37773e-13
-2.13857e-12
-5.11068e-13
-2.02048e-12
-4.86193e-13
-1.90799e-12
-4.63144e-13
-1.80064e-12
-4.41881e-13
-1.69815e-12
-4.22317e-13
-1.59999e-12
-4.04148e-13
-1.50593e-12
-3.87285e-13
-1.41559e-12
-3.71611e-13
-1.32868e-12
-3.57152e-13
-1.24506e-12
-3.43858e-13
-1.16449e-12
-3.31543e-13
-1.08673e-12
-3.20125e-13
-1.01148e-12
-3.09533e-13
-9.38456e-13
-2.99746e-13
-8.67489e-13
-2.90803e-13
-7.98463e-13
-2.82683e-13
-7.31241e-13
-2.75353e-13
-6.65704e-13
-2.68734e-13
-6.01684e-13
-2.62625e-13
-5.38958e-13
-2.56916e-13
-4.77345e-13
-2.51759e-13
-4.16721e-13
-2.47354e-13
-3.56997e-13
-2.43681e-13
-2.98096e-13
-2.40543e-13
-2.39907e-13
-2.3778e-13
-1.82259e-13
-2.35402e-13
-1.24984e-13
-2.33529e-13
-6.79702e-14
-2.3222e-13
-1.11433e-14
-2.31415e-13
4.5563e-14
-2.31046e-13
1.02219e-13
-2.31126e-13
1.58986e-13
-2.31694e-13
2.16084e-13
-2.32751e-13
2.73642e-13
-2.34255e-13
3.31695e-13
-2.36197e-13
3.90296e-13
-2.38636e-13
4.4954e-13
-2.4161e-13
5.09586e-13
-2.45091e-13
5.70599e-13
-2.49043e-13
6.32703e-13
-2.53488e-13
6.9605e-13
-2.58508e-13
7.60801e-13
-2.64187e-13
8.2704e-13
-2.7052e-13
8.94848e-13
-2.77432e-13
9.64429e-13
-2.84896e-13
1.03607e-12
-2.92989e-13
1.11004e-12
-3.01854e-13
1.18644e-12
-3.11621e-13
1.26526e-12
-3.22309e-13
1.34667e-12
-3.33846e-13
1.43107e-12
-3.462e-13
1.51891e-12
-3.59468e-13
1.61049e-12
-3.73838e-13
1.70594e-12
-3.89432e-13
1.8054e-12
-4.06265e-13
1.90915e-12
-4.24358e-13
2.01751e-12
-4.43828e-13
2.13098e-12
-4.64868e-13
2.25003e-12
-4.87624e-13
2.37506e-12
-5.12141e-13
2.50648e-12
-5.38491e-13
2.64474e-12
-5.6682e-13
2.79044e-12
-5.97318e-13
2.94433e-12
-6.30338e-13
3.10694e-12
-6.66306e-13
3.27861e-12
-7.05398e-13
3.46e-12
-7.47522e-13
3.65225e-12
-7.9268e-13
3.85671e-12
-8.41409e-13
4.07457e-12
-8.94658e-13
4.30647e-12
-9.53032e-13
4.55315e-12
-1.0166e-12
4.81623e-12
-1.08564e-12
5.09748e-12
-1.1609e-12
5.3984e-12
-1.2431e-12
5.72072e-12
-1.33288e-12
6.0665e-12
-1.43104e-12
6.43827e-12
-1.5388e-12
6.83864e-12
-1.65755e-12
7.26998e-12
-1.78851e-12
7.73532e-12
-1.93284e-12
8.23853e-12
-2.09212e-12
8.78373e-12
-2.26838e-12
9.37531e-12
-2.464e-12
1.00181e-11
-2.68146e-12
1.0718e-11
-2.92361e-12
1.14817e-11
-3.19398e-12