/*--------------------------------*- C++ -*----------------------------------*\
| =========                 |                                                 |
| \\      /  F ield         | OpenFOAM: The Open Source CFD Toolbox           |
|  \\    /   O peration     | Version:  2412                                  |
|   \\  /    A nd           | Website:  www.openfoam.com                      |
|    \\/     M anipulation  |                                                 |
\*---------------------------------------------------------------------------*/
FoamFile
{
    version     2.0;
    format      ascii;
    arch        "LSB;label=32;scalar=64";
    class       volVectorField;
    location    "200";
    object      U;
}
// * * * * * * * * * * * * * * * * * * * * * * * * * * * * * * * * * * * * * //

dimensions      [0 1 -1 0 0 0 0];

internalField   nonuniform List<vector> 
40000
(
(-8.20932e-08 6.46386e-08 0)
(-1.16593e-06 2.40971e-07 0)
(-2.955e-06 3.20181e-07 0)
(-4.90277e-06 3.10994e-07 0)
(-6.67638e-06 2.55087e-07 0)
(-8.10253e-06 1.80777e-07 0)
(-9.11307e-06 1.05846e-07 0)
(-9.71073e-06 3.95453e-08 0)
(-9.93839e-06 -1.44375e-08 0)
(-9.8594e-06 -5.53057e-08 0)
(-9.54297e-06 -8.37457e-08 0)
(-9.05566e-06 -1.0165e-07 0)
(-8.45691e-06 -1.11114e-07 0)
(-7.79631e-06 -1.13944e-07 0)
(-7.11274e-06 -1.12069e-07 0)
(-6.43552e-06 -1.07017e-07 0)
(-5.78539e-06 -1.00045e-07 0)
(-5.17572e-06 -9.1948e-08 0)
(-4.61415e-06 -8.34923e-08 0)
(-4.10409e-06 -7.51971e-08 0)
(-3.64579e-06 -6.73401e-08 0)
(-3.23758e-06 -6.00434e-08 0)
(-2.87613e-06 -5.34522e-08 0)
(-2.55769e-06 -4.75203e-08 0)
(-2.278e-06 -4.22224e-08 0)
(-2.0327e-06 -3.76853e-08 0)
(-1.81794e-06 -3.37323e-08 0)
(-1.62991e-06 -3.03127e-08 0)
(-1.46522e-06 -2.73498e-08 0)
(-1.32073e-06 -2.47503e-08 0)
(-1.19376e-06 -2.2543e-08 0)
(-1.08199e-06 -2.06701e-08 0)
(-9.83293e-07 -1.90033e-08 0)
(-8.95925e-07 -1.76315e-08 0)
(-8.18433e-07 -1.64174e-08 0)
(-7.49425e-07 -1.53834e-08 0)
(-6.87849e-07 -1.44677e-08 0)
(-6.3271e-07 -1.36909e-08 0)
(-5.83235e-07 -1.30719e-08 0)
(-5.38712e-07 -1.23711e-08 0)
(-4.98463e-07 -1.18818e-08 0)
(-4.62136e-07 -1.1394e-08 0)
(-4.29103e-07 -1.08496e-08 0)
(-3.98967e-07 -1.05248e-08 0)
(-3.71612e-07 -1.025e-08 0)
(-3.46631e-07 -9.89009e-09 0)
(-3.2369e-07 -9.58895e-09 0)
(-3.02649e-07 -9.36621e-09 0)
(-2.83315e-07 -9.16205e-09 0)
(-2.65503e-07 -8.98956e-09 0)
(-2.49073e-07 -8.84955e-09 0)
(-2.33878e-07 -8.71184e-09 0)
(-2.19797e-07 -8.57687e-09 0)
(-2.06751e-07 -8.44696e-09 0)
(-1.94646e-07 -8.30134e-09 0)
(-1.83371e-07 -8.14188e-09 0)
(-1.7284e-07 -8.00501e-09 0)
(-1.62999e-07 -7.91709e-09 0)
(-1.53797e-07 -7.8702e-09 0)
(-1.45184e-07 -7.83865e-09 0)
(-1.37121e-07 -7.79694e-09 0)
(-1.29572e-07 -7.7279e-09 0)
(-1.22484e-07 -7.63885e-09 0)
(-1.15804e-07 -7.55554e-09 0)
(-1.09491e-07 -7.49494e-09 0)
(-1.03518e-07 -7.45752e-09 0)
(-9.78692e-08 -7.43166e-09 0)
(-9.25265e-08 -7.40491e-09 0)
(-8.74706e-08 -7.37357e-09 0)
(-8.26819e-08 -7.33845e-09 0)
(-7.81336e-08 -7.29822e-09 0)
(-7.37987e-08 -7.26105e-09 0)
(-6.96529e-08 -7.22946e-09 0)
(-6.56947e-08 -7.21163e-09 0)
(-6.1918e-08 -7.19067e-09 0)
(-5.83082e-08 -7.17058e-09 0)
(-5.48437e-08 -7.14489e-09 0)
(-5.15049e-08 -7.12627e-09 0)
(-4.82986e-08 -7.11316e-09 0)
(-4.52218e-08 -7.09613e-09 0)
(-4.22661e-08 -7.07505e-09 0)
(-3.94044e-08 -7.05396e-09 0)
(-3.66146e-08 -7.04547e-09 0)
(-3.39035e-08 -7.0498e-09 0)
(-3.12731e-08 -7.05086e-09 0)
(-2.87182e-08 -7.04058e-09 0)
(-2.62387e-08 -7.02074e-09 0)
(-2.38231e-08 -6.99642e-09 0)
(-2.14531e-08 -6.97896e-09 0)
(-1.91181e-08 -6.9784e-09 0)
(-1.68157e-08 -6.99149e-09 0)
(-1.45532e-08 -7.00509e-09 0)
(-1.23404e-08 -7.00688e-09 0)
(-1.01682e-08 -6.99412e-09 0)
(-8.00876e-09 -6.97734e-09 0)
(-5.84828e-09 -6.97063e-09 0)
(-3.69914e-09 -6.97566e-09 0)
(-1.57519e-09 -6.98229e-09 0)
(5.30103e-10 -6.98438e-09 0)
(2.63767e-09 -6.98579e-09 0)
(4.7618e-09 -6.9903e-09 0)
(6.89959e-09 -6.99477e-09 0)
(9.04154e-09 -6.99553e-09 0)
(1.11873e-08 -6.9944e-09 0)
(1.33491e-08 -6.99576e-09 0)
(1.55417e-08 -7.00076e-09 0)
(1.77699e-08 -7.00484e-09 0)
(2.00314e-08 -7.00289e-09 0)
(2.23305e-08 -6.99809e-09 0)
(2.46764e-08 -6.99976e-09 0)
(2.70722e-08 -7.01223e-09 0)
(2.95142e-08 -7.02952e-09 0)
(3.20023e-08 -7.04063e-09 0)
(3.45512e-08 -7.04181e-09 0)
(3.71861e-08 -7.04159e-09 0)
(3.992e-08 -7.05077e-09 0)
(4.27428e-08 -7.06908e-09 0)
(4.56408e-08 -7.08525e-09 0)
(4.86214e-08 -7.09003e-09 0)
(5.17135e-08 -7.08839e-09 0)
(5.49435e-08 -7.09647e-09 0)
(5.83149e-08 -7.12266e-09 0)
(6.18199e-08 -7.15706e-09 0)
(6.54638e-08 -7.18381e-09 0)
(6.92679e-08 -7.19975e-09 0)
(7.32533e-08 -7.21669e-09 0)
(7.74291e-08 -7.24502e-09 0)
(8.1799e-08 -7.28187e-09 0)
(8.63746e-08 -7.31769e-09 0)
(9.11782e-08 -7.34892e-09 0)
(9.62404e-08 -7.38241e-09 0)
(1.01589e-07 -7.42634e-09 0)
(1.07239e-07 -7.47983e-09 0)
(1.13195e-07 -7.53299e-09 0)
(1.1947e-07 -7.56975e-09 0)
(1.26099e-07 -7.58246e-09 0)
(1.33148e-07 -7.59915e-09 0)
(1.40678e-07 -7.67288e-09 0)
(1.48701e-07 -7.82048e-09 0)
(1.57199e-07 -7.98384e-09 0)
(1.66182e-07 -8.07527e-09 0)
(1.75739e-07 -8.07296e-09 0)
(1.86014e-07 -8.04855e-09 0)
(1.97102e-07 -8.08018e-09 0)
(2.09016e-07 -8.1868e-09 0)
(2.21776e-07 -8.367e-09 0)
(2.35456e-07 -8.62185e-09 0)
(2.50142e-07 -8.90913e-09 0)
(2.65924e-07 -9.13672e-09 0)
(2.82933e-07 -9.24157e-09 0)
(3.01376e-07 -9.27097e-09 0)
(3.2148e-07 -9.35027e-09 0)
(3.4339e-07 -9.55989e-09 0)
(3.67202e-07 -9.87824e-09 0)
(3.93084e-07 -1.02378e-08 0)
(4.21317e-07 -1.06087e-08 0)
(4.52238e-07 -1.10162e-08 0)
(4.86174e-07 -1.14847e-08 0)
(5.23482e-07 -1.20092e-08 0)
(5.64591e-07 -1.25781e-08 0)
(6.10003e-07 -1.31902e-08 0)
(6.60319e-07 -1.38589e-08 0)
(7.16241e-07 -1.46042e-08 0)
(7.78553e-07 -1.54472e-08 0)
(8.48175e-07 -1.64267e-08 0)
(9.26202e-07 -1.75914e-08 0)
(1.01387e-06 -1.89693e-08 0)
(1.11262e-06 -2.05767e-08 0)
(1.22418e-06 -2.24325e-08 0)
(1.35052e-06 -2.45557e-08 0)
(1.49399e-06 -2.70182e-08 0)
(1.65726e-06 -2.99208e-08 0)
(1.84332e-06 -3.3296e-08 0)
(2.05555e-06 -3.71821e-08 0)
(2.29781e-06 -4.16436e-08 0)
(2.57423e-06 -4.67166e-08 0)
(2.88932e-06 -5.25094e-08 0)
(3.24773e-06 -5.91052e-08 0)
(3.6539e-06 -6.64644e-08 0)
(4.11202e-06 -7.45486e-08 0)
(4.62534e-06 -8.32302e-08 0)
(5.19556e-06 -9.22893e-08 0)
(5.82198e-06 -1.01427e-07 0)
(6.50027e-06 -1.1009e-07 0)
(7.22121e-06 -1.17498e-07 0)
(7.9692e-06 -1.22578e-07 0)
(8.72061e-06 -1.23958e-07 0)
(9.44231e-06 -1.19988e-07 0)
(1.00903e-05 -1.08682e-07 0)
(1.06095e-05 -8.7913e-08 0)
(1.09345e-05 -5.55226e-08 0)
(1.09922e-05 -9.72314e-09 0)
(1.07078e-05 5.02675e-08 0)
(1.00145e-05 1.23371e-07 0)
(8.86875e-06 2.05042e-07 0)
(7.27285e-06 2.84992e-07 0)
(5.30787e-06 3.43417e-07 0)
(3.16973e-06 3.49006e-07 0)
(1.22578e-06 2.5724e-07 0)
(7.47244e-08 5.79578e-08 0)
(-3.1626e-07 1.17863e-06 0)
(-3.06432e-06 2.80747e-06 0)
(-7.12456e-06 3.52872e-06 0)
(-1.14994e-05 3.50434e-06 0)
(-1.55252e-05 3.02005e-06 0)
(-1.88345e-05 2.30662e-06 0)
(-2.12571e-05 1.52743e-06 0)
(-2.27707e-05 7.86727e-07 0)
(-2.34459e-05 1.42549e-07 0)
(-2.34058e-05 -3.78639e-07 0)
(-2.27956e-05 -7.7216e-07 0)
(-2.17616e-05 -1.04621e-06 0)
(-2.04383e-05 -1.21673e-06 0)
(-1.89416e-05 -1.30228e-06 0)
(-1.73656e-05 -1.32182e-06 0)
(-1.57826e-05 -1.29301e-06 0)
(-1.42456e-05 -1.23098e-06 0)
(-1.27903e-05 -1.14798e-06 0)
(-1.14391e-05 -1.05375e-06 0)
(-1.02032e-05 -9.55494e-07 0)
(-9.08578e-06 -8.58349e-07 0)
(-8.08507e-06 -7.65695e-07 0)
(-7.1949e-06 -6.79486e-07 0)
(-6.40731e-06 -6.00985e-07 0)
(-5.71333e-06 -5.30354e-07 0)
(-5.10303e-06 -4.67657e-07 0)
(-4.56725e-06 -4.12429e-07 0)
(-4.09714e-06 -3.64166e-07 0)
(-3.68453e-06 -3.22086e-07 0)
(-3.32206e-06 -2.85534e-07 0)
(-3.00327e-06 -2.53892e-07 0)
(-2.72227e-06 -2.26481e-07 0)
(-2.47402e-06 -2.02741e-07 0)
(-2.25421e-06 -1.82222e-07 0)
(-2.05906e-06 -1.6449e-07 0)
(-1.88527e-06 -1.4896e-07 0)
(-1.73015e-06 -1.35567e-07 0)
(-1.59136e-06 -1.23832e-07 0)
(-1.46657e-06 -1.13577e-07 0)
(-1.35431e-06 -1.04591e-07 0)
(-1.25307e-06 -9.67471e-08 0)
(-1.16131e-06 -8.97834e-08 0)
(-1.07822e-06 -8.35524e-08 0)
(-1.00267e-06 -7.81257e-08 0)
(-9.33614e-07 -7.32984e-08 0)
(-8.70604e-07 -6.89296e-08 0)
(-8.13049e-07 -6.50433e-08 0)
(-7.60178e-07 -6.15501e-08 0)
(-7.11505e-07 -5.83925e-08 0)
(-6.6673e-07 -5.5582e-08 0)
(-6.25427e-07 -5.307e-08 0)
(-5.8719e-07 -5.07945e-08 0)
(-5.51771e-07 -4.87518e-08 0)
(-5.1895e-07 -4.69185e-08 0)
(-4.8847e-07 -4.52226e-08 0)
(-4.60112e-07 -4.36235e-08 0)
(-4.33701e-07 -4.21398e-08 0)
(-4.09057e-07 -4.07962e-08 0)
(-3.85993e-07 -3.95988e-08 0)
(-3.64367e-07 -3.85418e-08 0)
(-3.44084e-07 -3.75991e-08 0)
(-3.25069e-07 -3.67224e-08 0)
(-3.07231e-07 -3.58802e-08 0)
(-2.90456e-07 -3.50747e-08 0)
(-2.74634e-07 -3.43235e-08 0)
(-2.59676e-07 -3.36439e-08 0)
(-2.45515e-07 -3.30367e-08 0)
(-2.32101e-07 -3.24919e-08 0)
(-2.19394e-07 -3.19935e-08 0)
(-2.07353e-07 -3.15304e-08 0)
(-1.95928e-07 -3.10801e-08 0)
(-1.85058e-07 -3.06523e-08 0)
(-1.74684e-07 -3.02523e-08 0)
(-1.64765e-07 -2.99044e-08 0)
(-1.55278e-07 -2.95827e-08 0)
(-1.46204e-07 -2.92861e-08 0)
(-1.37512e-07 -2.89957e-08 0)
(-1.29167e-07 -2.87335e-08 0)
(-1.21143e-07 -2.85042e-08 0)
(-1.13416e-07 -2.82936e-08 0)
(-1.05976e-07 -2.80881e-08 0)
(-9.8793e-08 -2.7881e-08 0)
(-9.18303e-08 -2.76969e-08 0)
(-8.50605e-08 -2.75483e-08 0)
(-7.84586e-08 -2.74199e-08 0)
(-7.20239e-08 -2.73033e-08 0)
(-6.5775e-08 -2.71931e-08 0)
(-5.97114e-08 -2.70802e-08 0)
(-5.38024e-08 -2.69689e-08 0)
(-4.79992e-08 -2.68734e-08 0)
(-4.22594e-08 -2.68047e-08 0)
(-3.65796e-08 -2.67639e-08 0)
(-3.09889e-08 -2.6734e-08 0)
(-2.55002e-08 -2.66917e-08 0)
(-2.00899e-08 -2.66377e-08 0)
(-1.47239e-08 -2.6597e-08 0)
(-9.3825e-09 -2.65844e-08 0)
(-4.06063e-09 -2.65878e-08 0)
(1.24576e-09 -2.65885e-08 0)
(6.55056e-09 -2.65842e-08 0)
(1.18717e-08 -2.6587e-08 0)
(1.72152e-08 -2.66057e-08 0)
(2.25781e-08 -2.66382e-08 0)
(2.79672e-08 -2.66759e-08 0)
(3.34035e-08 -2.67138e-08 0)
(3.89115e-08 -2.67564e-08 0)
(4.45033e-08 -2.68089e-08 0)
(5.01776e-08 -2.68675e-08 0)
(5.59385e-08 -2.69289e-08 0)
(6.18057e-08 -2.70001e-08 0)
(6.78008e-08 -2.70922e-08 0)
(7.39363e-08 -2.72074e-08 0)
(8.02157e-08 -2.73322e-08 0)
(8.66472e-08 -2.74501e-08 0)
(9.32599e-08 -2.7566e-08 0)
(1.00092e-07 -2.7705e-08 0)
(1.07159e-07 -2.78841e-08 0)
(1.14458e-07 -2.80916e-08 0)
(1.21983e-07 -2.82985e-08 0)
(1.29757e-07 -2.84951e-08 0)
(1.37827e-07 -2.87062e-08 0)
(1.46246e-07 -2.89615e-08 0)
(1.55046e-07 -2.92604e-08 0)
(1.64237e-07 -2.9578e-08 0)
(1.73821e-07 -2.98997e-08 0)
(1.83812e-07 -3.02384e-08 0)
(1.94249e-07 -3.06155e-08 0)
(2.05187e-07 -3.10368e-08 0)
(2.16682e-07 -3.14923e-08 0)
(2.28775e-07 -3.19696e-08 0)
(2.41504e-07 -3.24694e-08 0)
(2.54921e-07 -3.30098e-08 0)
(2.69087e-07 -3.36124e-08 0)
(2.84057e-07 -3.42878e-08 0)
(2.99877e-07 -3.5015e-08 0)
(3.16573e-07 -3.57467e-08 0)
(3.34212e-07 -3.64766e-08 0)
(3.5295e-07 -3.72825e-08 0)
(3.7298e-07 -3.82602e-08 0)
(3.94429e-07 -3.94199e-08 0)
(4.17303e-07 -4.06631e-08 0)
(4.41589e-07 -4.18919e-08 0)
(4.67426e-07 -4.31341e-08 0)
(4.95077e-07 -4.44964e-08 0)
(5.24757e-07 -4.60349e-08 0)
(5.56648e-07 -4.77674e-08 0)
(5.91003e-07 -4.97419e-08 0)
(6.28104e-07 -5.20026e-08 0)
(6.6816e-07 -5.45175e-08 0)
(7.11326e-07 -5.71848e-08 0)
(7.5787e-07 -5.99658e-08 0)
(8.08283e-07 -6.29855e-08 0)
(8.63129e-07 -6.64279e-08 0)
(9.22906e-07 -7.03771e-08 0)
(9.88096e-07 -7.48125e-08 0)
(1.05928e-06 -7.97319e-08 0)
(1.13719e-06 -8.52274e-08 0)
(1.2227e-06 -9.14229e-08 0)
(1.31675e-06 -9.84258e-08 0)
(1.42045e-06 -1.06353e-07 0)
(1.53504e-06 -1.1533e-07 0)
(1.66201e-06 -1.25514e-07 0)
(1.80309e-06 -1.37114e-07 0)
(1.96023e-06 -1.50361e-07 0)
(2.13573e-06 -1.65524e-07 0)
(2.33232e-06 -1.82959e-07 0)
(2.55316e-06 -2.03073e-07 0)
(2.80189e-06 -2.26294e-07 0)
(3.08279e-06 -2.53105e-07 0)
(3.40071e-06 -2.84027e-07 0)
(3.76128e-06 -3.19679e-07 0)
(4.17109e-06 -3.60832e-07 0)
(4.63749e-06 -4.08229e-07 0)
(5.16864e-06 -4.62585e-07 0)
(5.77364e-06 -5.24612e-07 0)
(6.46219e-06 -5.94842e-07 0)
(7.24461e-06 -6.73699e-07 0)
(8.13145e-06 -7.61313e-07 0)
(9.13259e-06 -8.57117e-07 0)
(1.02566e-05 -9.59792e-07 0)
(1.15094e-05 -1.06685e-06 0)
(1.28925e-05 -1.1743e-06 0)
(1.44011e-05 -1.27636e-06 0)
(1.60216e-05 -1.36485e-06 0)
(1.77277e-05 -1.4289e-06 0)
(1.94781e-05 -1.4546e-06 0)
(2.12126e-05 -1.42518e-06 0)
(2.28491e-05 -1.32145e-06 0)
(2.42822e-05 -1.12278e-06 0)
(2.53833e-05 -8.09281e-07 0)
(2.60038e-05 -3.6475e-07 0)
(2.5984e-05 2.1854e-07 0)
(2.51676e-05 9.33214e-07 0)
(2.34249e-05 1.7481e-06 0)
(2.06863e-05 2.59665e-06 0)
(1.6987e-05 3.36295e-06 0)
(1.25255e-05 3.8667e-06 0)
(7.71534e-06 3.85748e-06 0)
(3.28657e-06 3.03228e-06 0)
(3.28457e-07 1.23599e-06 0)
(-4.46117e-07 3.21569e-06 0)
(-4.19441e-06 7.01943e-06 0)
(-9.56346e-06 8.61515e-06 0)
(-1.5327e-05 8.56043e-06 0)
(-2.0664e-05 7.45716e-06 0)
(-2.51122e-05 5.8001e-06 0)
(-2.8439e-05 3.95417e-06 0)
(-3.05948e-05 2.16486e-06 0)
(-3.16507e-05 5.793e-07 0)
(-3.17507e-05 -7.28322e-07 0)
(-3.10735e-05 -1.73644e-06 0)
(-2.98052e-05 -2.45687e-06 0)
(-2.81214e-05 -2.92201e-06 0)
(-2.61764e-05 -3.1738e-06 0)
(-2.40979e-05 -3.25663e-06 0)
(-2.19867e-05 -3.21285e-06 0)
(-1.99178e-05 -3.07971e-06 0)
(-1.79435e-05 -2.88854e-06 0)
(-1.60976e-05 -2.66407e-06 0)
(-1.4399e-05 -2.42506e-06 0)
(-1.28553e-05 -2.18527e-06 0)
(-1.1466e-05 -1.95412e-06 0)
(-1.02249e-05 -1.73716e-06 0)
(-9.12268e-06 -1.53817e-06 0)
(-8.1478e-06 -1.35822e-06 0)
(-7.2879e-06 -1.19757e-06 0)
(-6.531e-06 -1.05551e-06 0)
(-5.86519e-06 -9.30737e-07 0)
(-5.27949e-06 -8.21718e-07 0)
(-4.76401e-06 -7.2684e-07 0)
(-4.30973e-06 -6.44505e-07 0)
(-3.90874e-06 -5.7292e-07 0)
(-3.55406e-06 -5.11007e-07 0)
(-3.2397e-06 -4.57238e-07 0)
(-2.96021e-06 -4.10597e-07 0)
(-2.71117e-06 -3.70061e-07 0)
(-2.48879e-06 -3.34769e-07 0)
(-2.28946e-06 -3.03988e-07 0)
(-2.11046e-06 -2.76847e-07 0)
(-1.94935e-06 -2.53341e-07 0)
(-1.80376e-06 -2.32487e-07 0)
(-1.67194e-06 -2.14089e-07 0)
(-1.55242e-06 -1.98005e-07 0)
(-1.44366e-06 -1.83615e-07 0)
(-1.34444e-06 -1.70752e-07 0)
(-1.25385e-06 -1.59393e-07 0)
(-1.1709e-06 -1.49237e-07 0)
(-1.09473e-06 -1.40049e-07 0)
(-1.02473e-06 -1.31808e-07 0)
(-9.60307e-07 -1.24419e-07 0)
(-9.00843e-07 -1.17724e-07 0)
(-8.45853e-07 -1.11659e-07 0)
(-7.94948e-07 -1.06207e-07 0)
(-7.47719e-07 -1.01289e-07 0)
(-7.03788e-07 -9.68153e-08 0)
(-6.62884e-07 -9.27333e-08 0)
(-6.24783e-07 -8.89975e-08 0)
(-5.89251e-07 -8.55584e-08 0)
(-5.56057e-07 -8.23913e-08 0)
(-5.24991e-07 -7.95017e-08 0)
(-4.95854e-07 -7.68892e-08 0)
(-4.6848e-07 -7.45195e-08 0)
(-4.42737e-07 -7.23402e-08 0)
(-4.18507e-07 -7.03112e-08 0)
(-3.95675e-07 -6.84164e-08 0)
(-3.74126e-07 -6.66573e-08 0)
(-3.53755e-07 -6.50359e-08 0)
(-3.3447e-07 -6.35533e-08 0)
(-3.16191e-07 -6.22049e-08 0)
(-2.98838e-07 -6.097e-08 0)
(-2.82343e-07 -5.98214e-08 0)
(-2.66649e-07 -5.87326e-08 0)
(-2.517e-07 -5.77088e-08 0)
(-2.37429e-07 -5.67671e-08 0)
(-2.23776e-07 -5.59099e-08 0)
(-2.10699e-07 -5.51281e-08 0)
(-1.98167e-07 -5.4397e-08 0)
(-1.86152e-07 -5.37161e-08 0)
(-1.74602e-07 -5.30928e-08 0)
(-1.63467e-07 -5.25244e-08 0)
(-1.52717e-07 -5.20006e-08 0)
(-1.42336e-07 -5.1508e-08 0)
(-1.323e-07 -5.10459e-08 0)
(-1.22563e-07 -5.06176e-08 0)
(-1.13083e-07 -5.02284e-08 0)
(-1.03847e-07 -4.9891e-08 0)
(-9.48476e-08 -4.96097e-08 0)
(-8.60714e-08 -4.93673e-08 0)
(-7.75018e-08 -4.91342e-08 0)
(-6.91109e-08 -4.88932e-08 0)
(-6.08651e-08 -4.8663e-08 0)
(-5.2736e-08 -4.84823e-08 0)
(-4.47068e-08 -4.83605e-08 0)
(-3.67748e-08 -4.82695e-08 0)
(-2.89421e-08 -4.81831e-08 0)
(-2.11957e-08 -4.81025e-08 0)
(-1.35037e-08 -4.80423e-08 0)
(-5.83433e-09 -4.80096e-08 0)
(1.82745e-09 -4.79973e-08 0)
(9.4865e-09 -4.79964e-08 0)
(1.71522e-08 -4.8011e-08 0)
(2.48395e-08 -4.80529e-08 0)
(3.25659e-08 -4.81242e-08 0)
(4.03491e-08 -4.82148e-08 0)
(4.82043e-08 -4.83148e-08 0)
(5.61486e-08 -4.84287e-08 0)
(6.42045e-08 -4.85706e-08 0)
(7.23893e-08 -4.87439e-08 0)
(8.07112e-08 -4.89382e-08 0)
(8.91795e-08 -4.91475e-08 0)
(9.78126e-08 -4.93798e-08 0)
(1.06641e-07 -4.96516e-08 0)
(1.15697e-07 -4.99684e-08 0)
(1.25001e-07 -5.03136e-08 0)
(1.34561e-07 -5.06706e-08 0)
(1.44397e-07 -5.10498e-08 0)
(1.54543e-07 -5.14812e-08 0)
(1.6504e-07 -5.19829e-08 0)
(1.75912e-07 -5.25431e-08 0)
(1.87168e-07 -5.3136e-08 0)
(1.98833e-07 -5.37536e-08 0)
(2.10961e-07 -5.44123e-08 0)
(2.23621e-07 -5.51336e-08 0)
(2.36855e-07 -5.59276e-08 0)
(2.50672e-07 -5.67933e-08 0)
(2.65082e-07 -5.77282e-08 0)
(2.80132e-07 -5.87321e-08 0)
(2.95902e-07 -5.98097e-08 0)
(3.12479e-07 -6.09714e-08 0)
(3.29929e-07 -6.22219e-08 0)
(3.48296e-07 -6.35575e-08 0)
(3.67632e-07 -6.49815e-08 0)
(3.88006e-07 -6.65155e-08 0)
(4.09521e-07 -6.8201e-08 0)
(4.32314e-07 -7.00759e-08 0)
(4.56482e-07 -7.21245e-08 0)
(4.82068e-07 -7.42817e-08 0)
(5.09148e-07 -7.65143e-08 0)
(5.37904e-07 -7.88883e-08 0)
(5.68591e-07 -8.15447e-08 0)
(6.0142e-07 -8.45774e-08 0)
(6.36484e-07 -8.79462e-08 0)
(6.739e-07 -9.15758e-08 0)
(7.13915e-07 -9.54777e-08 0)
(7.56807e-07 -9.96996e-08 0)
(8.0281e-07 -1.04261e-07 0)
(8.52209e-07 -1.09218e-07 0)
(9.05405e-07 -1.14719e-07 0)
(9.62873e-07 -1.20942e-07 0)
(1.02505e-06 -1.2794e-07 0)
(1.09233e-06 -1.35641e-07 0)
(1.16516e-06 -1.4404e-07 0)
(1.24421e-06 -1.53294e-07 0)
(1.33025e-06 -1.63618e-07 0)
(1.4241e-06 -1.75181e-07 0)
(1.52661e-06 -1.88113e-07 0)
(1.63879e-06 -2.02591e-07 0)
(1.76183e-06 -2.18853e-07 0)
(1.8971e-06 -2.37193e-07 0)
(2.0462e-06 -2.57959e-07 0)
(2.21095e-06 -2.8152e-07 0)
(2.39343e-06 -3.08298e-07 0)
(2.59611e-06 -3.38841e-07 0)
(2.8218e-06 -3.73774e-07 0)
(3.07373e-06 -4.13763e-07 0)
(3.35569e-06 -4.59639e-07 0)
(3.6721e-06 -5.12396e-07 0)
(4.02811e-06 -5.73149e-07 0)
(4.4297e-06 -6.4321e-07 0)
(4.88371e-06 -7.24009e-07 0)
(5.39787e-06 -8.17033e-07 0)
(5.98115e-06 -9.24017e-07 0)
(6.64361e-06 -1.0468e-06 0)
(7.39637e-06 -1.18716e-06 0)
(8.25172e-06 -1.34678e-06 0)
(9.22261e-06 -1.52693e-06 0)
(1.03224e-05 -1.72819e-06 0)
(1.15647e-05 -1.9503e-06 0)
(1.29617e-05 -2.19143e-06 0)
(1.45235e-05 -2.44757e-06 0)
(1.62561e-05 -2.71181e-06 0)
(1.81588e-05 -2.97327e-06 0)
(2.0222e-05 -3.21635e-06 0)
(2.2423e-05 -3.41967e-06 0)
(2.47226e-05 -3.55535e-06 0)
(2.70604e-05 -3.58858e-06 0)
(2.9351e-05 -3.478e-06 0)
(3.1481e-05 -3.1774e-06 0)
(3.33071e-05 -2.63863e-06 0)
(3.46579e-05 -1.81721e-06 0)
(3.53399e-05 -6.80317e-07 0)
(3.51498e-05 7.81799e-07 0)
(3.38951e-05 2.54037e-06 0)
(3.14246e-05 4.50896e-06 0)
(2.76699e-05 6.52037e-06 0)
(2.26979e-05 8.30173e-06 0)
(1.67765e-05 9.45184e-06 0)
(1.04251e-05 9.43581e-06 0)
(4.5452e-06 7.61525e-06 0)
(4.75497e-07 3.42754e-06 0)
(-4.8384e-07 5.65503e-06 0)
(-4.61997e-06 1.20278e-05 0)
(-1.05384e-05 1.46418e-05 0)
(-1.69086e-05 1.45688e-05 0)
(-2.28469e-05 1.27776e-05 0)
(-2.78532e-05 1.00533e-05 0)
(-3.16655e-05 6.98338e-06 0)
(-3.42136e-05 3.97273e-06 0)
(-3.55573e-05 1.27369e-06 0)
(-3.58384e-05 -9.80046e-07 0)
(-3.52414e-05 -2.7412e-06 0)
(-3.39632e-05 -4.02154e-06 0)
(-3.2194e-05 -4.86857e-06 0)
(-3.01036e-05 -5.3486e-06 0)
(-2.78356e-05 -5.5343e-06 0)
(-2.55048e-05 -5.49603e-06 0)
(-2.31988e-05 -5.29712e-06 0)
(-2.09802e-05 -4.9912e-06 0)
(-1.88909e-05 -4.62144e-06 0)
(-1.69558e-05 -4.22132e-06 0)
(-1.51868e-05 -3.81495e-06 0)
(-1.35861e-05 -3.41972e-06 0)
(-1.21491e-05 -3.04643e-06 0)
(-1.08671e-05 -2.70179e-06 0)
(-9.72839e-06 -2.38873e-06 0)
(-8.72025e-06 -2.10813e-06 0)
(-7.82956e-06 -1.85904e-06 0)
(-7.04351e-06 -1.63948e-06 0)
(-6.35001e-06 -1.44714e-06 0)
(-5.73799e-06 -1.27933e-06 0)
(-5.19719e-06 -1.13318e-06 0)
(-4.71879e-06 -1.00629e-06 0)
(-4.29485e-06 -8.96046e-07 0)
(-3.91823e-06 -8.00263e-07 0)
(-3.58306e-06 -7.1701e-07 0)
(-3.2839e-06 -6.44603e-07 0)
(-3.01631e-06 -5.81434e-07 0)
(-2.77618e-06 -5.26273e-07 0)
(-2.56035e-06 -4.77941e-07 0)
(-2.36589e-06 -4.35555e-07 0)
(-2.18995e-06 -3.98187e-07 0)
(-2.03077e-06 -3.65192e-07 0)
(-1.88628e-06 -3.3606e-07 0)
(-1.75451e-06 -3.10197e-07 0)
(-1.63436e-06 -2.87194e-07 0)
(-1.52467e-06 -2.66676e-07 0)
(-1.42412e-06 -2.4829e-07 0)
(-1.33176e-06 -2.31825e-07 0)
(-1.24685e-06 -2.17089e-07 0)
(-1.16863e-06 -2.0382e-07 0)
(-1.0964e-06 -1.91819e-07 0)
(-1.02962e-06 -1.80971e-07 0)
(-9.67791e-07 -1.7114e-07 0)
(-9.10417e-07 -1.62183e-07 0)
(-8.57072e-07 -1.54027e-07 0)
(-8.07403e-07 -1.46629e-07 0)
(-7.61091e-07 -1.39917e-07 0)
(-7.17848e-07 -1.33802e-07 0)
(-6.77429e-07 -1.28203e-07 0)
(-6.39614e-07 -1.23055e-07 0)
(-6.04176e-07 -1.18317e-07 0)
(-5.70893e-07 -1.13965e-07 0)
(-5.39582e-07 -1.09972e-07 0)
(-5.10087e-07 -1.06303e-07 0)
(-4.82275e-07 -1.0293e-07 0)
(-4.56018e-07 -9.98158e-08 0)
(-4.312e-07 -9.69409e-08 0)
(-4.07717e-07 -9.42833e-08 0)
(-3.85465e-07 -9.1832e-08 0)
(-3.64337e-07 -8.9564e-08 0)
(-3.44236e-07 -8.7472e-08 0)
(-3.25096e-07 -8.55262e-08 0)
(-3.06866e-07 -8.37207e-08 0)
(-2.89476e-07 -8.20386e-08 0)
(-2.7285e-07 -8.04929e-08 0)
(-2.5692e-07 -7.90707e-08 0)
(-2.41637e-07 -7.77639e-08 0)
(-2.26979e-07 -7.65494e-08 0)
(-2.12896e-07 -7.54126e-08 0)
(-1.99328e-07 -7.43593e-08 0)
(-1.86231e-07 -7.33968e-08 0)
(-1.73569e-07 -7.25269e-08 0)
(-1.61306e-07 -7.17296e-08 0)
(-1.49408e-07 -7.09843e-08 0)
(-1.37845e-07 -7.02917e-08 0)
(-1.26601e-07 -6.96588e-08 0)
(-1.15657e-07 -6.90937e-08 0)
(-1.04968e-07 -6.86035e-08 0)
(-9.44917e-08 -6.81752e-08 0)
(-8.4213e-08 -6.77829e-08 0)
(-7.41328e-08 -6.74171e-08 0)
(-6.42295e-08 -6.70909e-08 0)
(-5.44591e-08 -6.68203e-08 0)
(-4.47912e-08 -6.66079e-08 0)
(-3.52226e-08 -6.64417e-08 0)
(-2.57516e-08 -6.63065e-08 0)
(-1.63558e-08 -6.61981e-08 0)
(-6.99715e-09 -6.61256e-08 0)
(2.35523e-09 -6.6096e-08 0)
(1.17117e-08 -6.61057e-08 0)
(2.10746e-08 -6.61508e-08 0)
(3.04575e-08 -6.62323e-08 0)
(3.98881e-08 -6.63517e-08 0)
(4.9396e-08 -6.65082e-08 0)
(5.8997e-08 -6.66976e-08 0)
(6.86993e-08 -6.69185e-08 0)
(7.85247e-08 -6.71798e-08 0)
(8.85053e-08 -6.74928e-08 0)
(9.8665e-08 -6.78588e-08 0)
(1.09014e-07 -6.82706e-08 0)
(1.19561e-07 -6.87217e-08 0)
(1.30331e-07 -6.92167e-08 0)
(1.41371e-07 -6.97715e-08 0)
(1.52727e-07 -7.0395e-08 0)
(1.64414e-07 -7.10806e-08 0)
(1.76437e-07 -7.18191e-08 0)
(1.88815e-07 -7.26125e-08 0)
(2.01596e-07 -7.34787e-08 0)
(2.14835e-07 -7.44405e-08 0)
(2.28568e-07 -7.55042e-08 0)
(2.42824e-07 -7.66556e-08 0)
(2.57646e-07 -7.78795e-08 0)
(2.73093e-07 -7.91816e-08 0)
(2.89214e-07 -8.05897e-08 0)
(3.06043e-07 -8.21295e-08 0)
(3.23613e-07 -8.38066e-08 0)
(3.41979e-07 -8.56125e-08 0)
(3.6122e-07 -8.75435e-08 0)
(3.81429e-07 -8.96162e-08 0)
(4.02699e-07 -9.18561e-08 0)
(4.25103e-07 -9.42786e-08 0)
(4.48703e-07 -9.6889e-08 0)
(4.73559e-07 -9.96841e-08 0)
(4.99755e-07 -1.0267e-07 0)
(5.27443e-07 -1.05905e-07 0)
(5.5681e-07 -1.09474e-07 0)
(5.88011e-07 -1.1341e-07 0)
(6.21144e-07 -1.17664e-07 0)
(6.56307e-07 -1.22175e-07 0)
(6.93673e-07 -1.26989e-07 0)
(7.3351e-07 -1.32254e-07 0)
(7.76069e-07 -1.38079e-07 0)
(8.21552e-07 -1.44477e-07 0)
(8.70223e-07 -1.51489e-07 0)
(9.22431e-07 -1.59205e-07 0)
(9.78509e-07 -1.67677e-07 0)
(1.03875e-06 -1.76911e-07 0)
(1.1035e-06 -1.86957e-07 0)
(1.17325e-06 -1.9799e-07 0)
(1.24865e-06 -2.10246e-07 0)
(1.3303e-06 -2.23892e-07 0)
(1.41878e-06 -2.3903e-07 0)
(1.51479e-06 -2.55798e-07 0)
(1.61919e-06 -2.7443e-07 0)
(1.73299e-06 -2.95235e-07 0)
(1.85727e-06 -3.18531e-07 0)
(1.99324e-06 -3.44647e-07 0)
(2.14231e-06 -3.73983e-07 0)
(2.30608e-06 -4.07025e-07 0)
(2.48644e-06 -4.44357e-07 0)
(2.68559e-06 -4.86647e-07 0)
(2.90597e-06 -5.34667e-07 0)
(3.15047e-06 -5.89359e-07 0)
(3.42243e-06 -6.51844e-07 0)
(3.72569e-06 -7.2338e-07 0)
(4.06466e-06 -8.05418e-07 0)
(4.44452e-06 -8.99644e-07 0)
(4.87117e-06 -1.00796e-06 0)
(5.35151e-06 -1.13262e-06 0)
(5.89347e-06 -1.27615e-06 0)
(6.50593e-06 -1.44118e-06 0)
(7.19899e-06 -1.6306e-06 0)
(7.984e-06 -1.84739e-06 0)
(8.87332e-06 -2.09442e-06 0)
(9.8805e-06 -2.37438e-06 0)
(1.10198e-05 -2.68922e-06 0)
(1.23055e-05 -3.03958e-06 0)
(1.37517e-05 -3.42436e-06 0)
(1.53708e-05 -3.83964e-06 0)
(1.71721e-05 -4.27766e-06 0)
(1.91598e-05 -4.72554e-06 0)
(2.13302e-05 -5.16358e-06 0)
(2.36687e-05 -5.56383e-06 0)
(2.61458e-05 -5.88855e-06 0)
(2.87131e-05 -6.08913e-06 0)
(3.12987e-05 -6.10582e-06 0)
(3.38031e-05 -5.8686e-06 0)
(3.60969e-05 -5.30045e-06 0)
(3.80195e-05 -4.32289e-06 0)
(3.93819e-05 -2.86573e-06 0)
(3.99747e-05 -8.81002e-07 0)
(3.95823e-05 1.63806e-06 0)
(3.80059e-05 4.63218e-06 0)
(3.50964e-05 7.94615e-06 0)
(3.07972e-05 1.12949e-05 0)
(2.51973e-05 1.42285e-05 0)
(1.85968e-05 1.6103e-05 0)
(1.15557e-05 1.6069e-05 0)
(5.04517e-06 1.30964e-05 0)
(5.22458e-07 6.07816e-06 0)
(-4.61864e-07 8.15711e-06 0)
(-4.53154e-06 1.72053e-05 0)
(-1.04076e-05 2.09024e-05 0)
(-1.67742e-05 2.08488e-05 0)
(-2.27592e-05 1.83908e-05 0)
(-2.78645e-05 1.46049e-05 0)
(-3.18205e-05 1.02998e-05 0)
(-3.45428e-05 6.04022e-06 0)
(-3.60746e-05 2.187e-06 0)
(-3.65418e-05 -1.06206e-06 0)
(-3.61155e-05 -3.62951e-06 0)
(-3.49834e-05 -5.52201e-06 0)
(-3.33299e-05 -6.79924e-06 0)
(-3.13232e-05 -7.54963e-06 0)
(-2.91072e-05 -7.87261e-06 0)
(-2.67998e-05 -7.86658e-06 0)
(-2.44922e-05 -7.6211e-06 0)
(-2.22515e-05 -7.21292e-06 0)
(-2.01241e-05 -6.70463e-06 0)
(-1.81389e-05 -6.14531e-06 0)
(-1.63117e-05 -5.57092e-06 0)
(-1.46479e-05 -5.00747e-06 0)
(-1.31455e-05 -4.47179e-06 0)
(-1.17976e-05 -3.97434e-06 0)
(-1.05943e-05 -3.52039e-06 0)
(-9.52371e-06 -3.11175e-06 0)
(-8.57356e-06 -2.7475e-06 0)
(-7.73149e-06 -2.42557e-06 0)
(-6.98575e-06 -2.14254e-06 0)
(-6.32506e-06 -1.89488e-06 0)
(-5.73946e-06 -1.6787e-06 0)
(-5.21981e-06 -1.4906e-06 0)
(-4.75778e-06 -1.32674e-06 0)
(-4.34647e-06 -1.18426e-06 0)
(-3.97942e-06 -1.06022e-06 0)
(-3.65114e-06 -9.51927e-07 0)
(-3.35695e-06 -8.57581e-07 0)
(-3.09251e-06 -7.74802e-07 0)
(-2.85442e-06 -7.02494e-07 0)
(-2.63953e-06 -6.38784e-07 0)
(-2.44491e-06 -5.82719e-07 0)
(-2.26848e-06 -5.33328e-07 0)
(-2.1082e-06 -4.89402e-07 0)
(-1.96205e-06 -4.50393e-07 0)
(-1.82858e-06 -4.15813e-07 0)
(-1.70647e-06 -3.84904e-07 0)
(-1.59455e-06 -3.57163e-07 0)
(-1.49177e-06 -3.32326e-07 0)
(-1.39718e-06 -3.10048e-07 0)
(-1.30994e-06 -2.8997e-07 0)
(-1.22936e-06 -2.71864e-07 0)
(-1.15481e-06 -2.55525e-07 0)
(-1.0857e-06 -2.40712e-07 0)
(-1.02152e-06 -2.27225e-07 0)
(-9.61875e-07 -2.14934e-07 0)
(-9.06353e-07 -2.03736e-07 0)
(-8.54577e-07 -1.93534e-07 0)
(-8.06208e-07 -1.84242e-07 0)
(-7.60956e-07 -1.75776e-07 0)
(-7.18572e-07 -1.6803e-07 0)
(-6.78827e-07 -1.60908e-07 0)
(-6.41502e-07 -1.54342e-07 0)
(-6.06397e-07 -1.4829e-07 0)
(-5.73335e-07 -1.42721e-07 0)
(-5.4215e-07 -1.376e-07 0)
(-5.12696e-07 -1.3289e-07 0)
(-4.84843e-07 -1.28555e-07 0)
(-4.58473e-07 -1.24561e-07 0)
(-4.33475e-07 -1.20861e-07 0)
(-4.09738e-07 -1.17422e-07 0)
(-3.87162e-07 -1.14233e-07 0)
(-3.65662e-07 -1.11285e-07 0)
(-3.45171e-07 -1.08564e-07 0)
(-3.25621e-07 -1.06043e-07 0)
(-3.06936e-07 -1.03708e-07 0)
(-2.89035e-07 -1.01548e-07 0)
(-2.71859e-07 -9.9563e-08 0)
(-2.55359e-07 -9.77306e-08 0)
(-2.39496e-07 -9.6019e-08 0)
(-2.24228e-07 -9.44243e-08 0)
(-2.09507e-07 -9.29539e-08 0)
(-1.95276e-07 -9.16112e-08 0)
(-1.81479e-07 -9.03872e-08 0)
(-1.68078e-07 -8.92655e-08 0)
(-1.55052e-07 -8.82395e-08 0)
(-1.42383e-07 -8.73034e-08 0)
(-1.30058e-07 -8.64447e-08 0)
(-1.18033e-07 -8.5658e-08 0)
(-1.06251e-07 -8.4953e-08 0)
(-9.46786e-08 -8.43391e-08 0)
(-8.33126e-08 -8.38072e-08 0)
(-7.21432e-08 -8.33364e-08 0)
(-6.11369e-08 -8.29201e-08 0)
(-5.02571e-08 -8.25698e-08 0)
(-3.94819e-08 -8.2293e-08 0)
(-2.88002e-08 -8.20802e-08 0)
(-1.8198e-08 -8.19173e-08 0)
(-7.64757e-09 -8.18025e-08 0)
(2.88555e-09 -8.17463e-08 0)
(1.34231e-08 -8.17574e-08 0)
(2.39749e-08 -8.18341e-08 0)
(3.45556e-08 -8.19672e-08 0)
(4.51903e-08 -8.215e-08 0)
(5.59092e-08 -8.23864e-08 0)
(6.67344e-08 -8.26845e-08 0)
(7.76764e-08 -8.30435e-08 0)
(8.87513e-08 -8.34607e-08 0)
(9.99908e-08 -8.39419e-08 0)
(1.11428e-07 -8.44972e-08 0)
(1.23088e-07 -8.51332e-08 0)
(1.34983e-07 -8.58456e-08 0)
(1.47129e-07 -8.66236e-08 0)
(1.59565e-07 -8.74692e-08 0)
(1.72339e-07 -8.84025e-08 0)
(1.85491e-07 -8.94429e-08 0)
(1.99039e-07 -9.05929e-08 0)
(2.12999e-07 -9.18393e-08 0)
(2.274e-07 -9.31755e-08 0)
(2.4229e-07 -9.46213e-08 0)
(2.57727e-07 -9.62043e-08 0)
(2.73772e-07 -9.79319e-08 0)
(2.90474e-07 -9.97927e-08 0)
(3.07873e-07 -1.01782e-07 0)
(3.26006e-07 -1.03921e-07 0)
(3.44917e-07 -1.06241e-07 0)
(3.64667e-07 -1.08761e-07 0)
(3.85331e-07 -1.11483e-07 0)
(4.06986e-07 -1.14404e-07 0)
(4.29716e-07 -1.17532e-07 0)
(4.53612e-07 -1.20895e-07 0)
(4.78768e-07 -1.24532e-07 0)
(5.0528e-07 -1.28483e-07 0)
(5.33243e-07 -1.3277e-07 0)
(5.62736e-07 -1.37374e-07 0)
(5.9385e-07 -1.42291e-07 0)
(6.2675e-07 -1.47591e-07 0)
(6.61663e-07 -1.53385e-07 0)
(6.98812e-07 -1.59748e-07 0)
(7.38338e-07 -1.66679e-07 0)
(7.80347e-07 -1.74158e-07 0)
(8.25048e-07 -1.82247e-07 0)
(8.72741e-07 -1.91067e-07 0)
(9.2369e-07 -2.00694e-07 0)
(9.78161e-07 -2.11192e-07 0)
(1.03652e-06 -2.22695e-07 0)
(1.09919e-06 -2.35375e-07 0)
(1.16661e-06 -2.49372e-07 0)
(1.23912e-06 -2.64756e-07 0)
(1.31718e-06 -2.8161e-07 0)
(1.4014e-06 -3.00152e-07 0)
(1.4925e-06 -3.20683e-07 0)
(1.59122e-06 -3.43479e-07 0)
(1.69832e-06 -3.68789e-07 0)
(1.81469e-06 -3.96912e-07 0)
(1.94141e-06 -4.28259e-07 0)
(2.07966e-06 -4.63314e-07 0)
(2.23081e-06 -5.02607e-07 0)
(2.39637e-06 -5.46766e-07 0)
(2.5781e-06 -5.96504e-07 0)
(2.77802e-06 -6.52658e-07 0)
(2.9985e-06 -7.16239e-07 0)
(3.24218e-06 -7.88394e-07 0)
(3.5121e-06 -8.70461e-07 0)
(3.81183e-06 -9.64055e-07 0)
(4.14543e-06 -1.07105e-06 0)
(4.51761e-06 -1.19359e-06 0)
(4.9338e-06 -1.33414e-06 0)
(5.40018e-06 -1.49549e-06 0)
(5.92381e-06 -1.68075e-06 0)
(6.51291e-06 -1.89354e-06 0)
(7.17663e-06 -2.1377e-06 0)
(7.92519e-06 -2.41726e-06 0)
(8.77005e-06 -2.73641e-06 0)
(9.72347e-06 -3.09901e-06 0)
(1.07987e-05 -3.50849e-06 0)
(1.20095e-05 -3.96723e-06 0)
(1.33695e-05 -4.47564e-06 0)
(1.48915e-05 -5.03135e-06 0)
(1.65864e-05 -5.62779e-06 0)
(1.84609e-05 -6.25265e-06 0)
(2.05167e-05 -6.88611e-06 0)
(2.27466e-05 -7.49858e-06 0)
(2.51318e-05 -8.04867e-06 0)
(2.76383e-05 -8.48108e-06 0)
(3.02127e-05 -8.72542e-06 0)
(3.27783e-05 -8.69611e-06 0)
(3.52314e-05 -8.29407e-06 0)
(3.74397e-05 -7.41177e-06 0)
(3.92415e-05 -5.94175e-06 0)
(4.04499e-05 -3.79049e-06 0)
(4.08613e-05 -8.98486e-07 0)
(4.02698e-05 2.73337e-06 0)
(3.84903e-05 7.01007e-06 0)
(3.53902e-05 1.17029e-05 0)
(3.09298e-05 1.64057e-05 0)
(2.52118e-05 2.04912e-05 0)
(1.85425e-05 2.30736e-05 0)