/*--------------------------------*- C++ -*----------------------------------*\
| =========                 |                                                 |
| \\      /  F ield         | OpenFOAM: The Open Source CFD Toolbox           |
|  \\    /   O peration     | Version:  2412                                  |
|   \\  /    A nd           | Website:  www.openfoam.com                      |
|    \\/     M anipulation  |                                                 |
\*---------------------------------------------------------------------------*/
FoamFile
{
    version     2.0;
    format      ascii;
    arch        "LSB;label=32;scalar=64";
    class       volScalarField;
    location    "200";
    object      p;
}
// * * * * * * * * * * * * * * * * * * * * * * * * * * * * * * * * * * * * * //

dimensions      [0 2 -2 0 0 0 0];

internalField   nonuniform List<scalar> 
900
(
0
-1.68139e-05
-7.89513e-06
2.90275e-05
8.9464e-05
0.000167115
0.000254986
0.000346588
0.000436326
0.000519533
0.000592525
0.000652506
0.000697459
0.000726
0.000737278
0.00073088
0.000706777
0.000665346
0.000607452
0.000534557
0.000448833
0.000353293
0.000251938
0.000149848
5.31358e-05
-3.12071e-05
-9.57189e-05
-0.000133851
-0.000141216
-0.000120894
-0.00254831
-0.00256833
-0.00256211
-0.00253022
-0.0024783
-0.00241145
-0.00233545
-0.00225575
-0.00217718
-0.00210389
-0.00203925
-0.00198592
-0.00194588
-0.00192053
-0.00191077
-0.001917
-0.00193923
-0.00197704
-0.0020295
-0.00209512
-0.00217177
-0.00225657
-0.00234587
-0.00243518
-0.00251927
-0.00259231
-0.00264818
-0.0026815
-0.0026866
-0.00266326
-0.00766904
-0.00769423
-0.00769277
-0.00766681
-0.00762308
-0.00756609
-0.00750081
-0.00743189
-0.00736356
-0.00729948
-0.00724274
-0.00719578
-0.00716051
-0.00713828
-0.00712993
-0.00713589
-0.00715616
-0.00719029
-0.00723734
-0.00729588
-0.00736386
-0.00743862
-0.00751684
-0.00759457
-0.00766727
-0.00772995
-0.00777734
-0.00780465
-0.00780492
-0.00777604
-0.0153187
-0.0153476
-0.0153506
-0.0153305
-0.0152943
-0.0152461
-0.0151904
-0.0151312
-0.0150723
-0.0150168
-0.0149676
-0.0149268
-0.0148961
-0.0148769
-0.0148699
-0.0148755
-0.0148937
-0.0149241
-0.0149658
-0.0150174
-0.015077
-0.0151423
-0.0152104
-0.0152776
-0.0153401
-0.0153934
-0.0154329
-0.0154542
-0.0154498
-0.0154167
-0.0254248
-0.0254541
-0.02546
-0.025445
-0.0254156
-0.0253757
-0.0253291
-0.0252793
-0.0252294
-0.0251824
-0.0251405
-0.0251057
-0.0250797
-0.0250634
-0.0250577
-0.0250629
-0.025079
-0.0251055
-0.0251417
-0.0251863
-0.0252377
-0.0252938
-0.0253519
-0.025409
-0.0254617
-0.0255063
-0.0255386
-0.0255545
-0.0255471
-0.0255133
-0.0378911
-0.0379182
-0.0379253
-0.0379144
-0.0378913
-0.037859
-0.037821
-0.0377801
-0.037739
-0.0377
-0.0376653
-0.0376365
-0.0376149
-0.0376016
-0.0375971
-0.0376018
-0.0376157
-0.0376383
-0.037669
-0.0377068
-0.03775
-0.037797
-0.0378455
-0.0378929
-0.0379364
-0.0379728
-0.0379984
-0.0380101
-0.0380014
-0.0379698
-0.0526017
-0.0526247
-0.0526316
-0.0526239
-0.0526063
-0.0525812
-0.0525513
-0.0525188
-0.0524861
-0.052455
-0.0524272
-0.0524042
-0.052387
-0.0523764
-0.0523731
-0.0523773
-0.0523889
-0.0524077
-0.052433
-0.0524639
-0.0524992
-0.0525373
-0.0525765
-0.0526146
-0.0526494
-0.052678
-0.0526979
-0.0527061
-0.0526976
-0.0526706
-0.069425
-0.0694427
-0.0694485
-0.0694433
-0.0694306
-0.069412
-0.0693896
-0.0693651
-0.0693404
-0.0693167
-0.0692956
-0.0692781
-0.069265
-0.0692572
-0.069255
-0.0692586
-0.069268
-0.0692829
-0.0693029
-0.0693272
-0.0693548
-0.0693844
-0.0694147
-0.069444
-0.0694704
-0.069492
-0.0695067
-0.0695122
-0.069505
-0.0694839
-0.0882174
-0.0882293
-0.0882334
-0.0882302
-0.0882217
-0.0882091
-0.0881936
-0.0881766
-0.0881593
-0.0881426
-0.0881277
-0.0881154
-0.0881063
-0.0881009
-0.0880997
-0.0881027
-0.0881099
-0.0881212
-0.0881361
-0.088154
-0.0881742
-0.0881958
-0.0882177
-0.0882387
-0.0882575
-0.0882726
-0.0882826
-0.0882862
-0.088281
-0.0882663
-0.108827
-0.108833
-0.108835
-0.108834
-0.108829
-0.108822
-0.108812
-0.108802
-0.108792
-0.108782
-0.108772
-0.108765
-0.108759
-0.108756
-0.108756
-0.108758
-0.108763
-0.108771
-0.108781
-0.108793
-0.108807
-0.108821
-0.108835
-0.108848
-0.10886
-0.108869
-0.108875
-0.108877
-0.108874
-0.108866
-0.131098
-0.131098
-0.131099
-0.131098
-0.131096
-0.131094
-0.13109
-0.131086
-0.131082
-0.131077
-0.131073
-0.13107
-0.131068
-0.131067
-0.131067
-0.131069
-0.131072
-0.131077
-0.131082
-0.131089
-0.131096
-0.131103
-0.13111
-0.131117
-0.131122
-0.131126
-0.131128
-0.131129
-0.131129
-0.131127
-0.154871
-0.154867
-0.154865
-0.154866
-0.154867
-0.154868
-0.15487
-0.154871
-0.154872
-0.154873
-0.154873
-0.154874
-0.154874
-0.154875
-0.154876
-0.154877
-0.154878
-0.15488
-0.154882
-0.154883
-0.154885
-0.154886
-0.154887
-0.154887
-0.154887
-0.154886
-0.154886
-0.154885
-0.154887
-0.15489
-0.179991
-0.179983
-0.17998
-0.179981
-0.179985
-0.179989
-0.179995
-0.180001
-0.180006
-0.180011
-0.180016
-0.180019
-0.180022
-0.180024
-0.180026
-0.180026
-0.180026
-0.180025
-0.180023
-0.180021
-0.180017
-0.180013
-0.180008
-0.180003
-0.179998
-0.179994
-0.179991
-0.17999
-0.179993
-0.180001
-0.206306
-0.206295
-0.206291
-0.206293
-0.206298
-0.206306
-0.206314
-0.206324
-0.206333
-0.206342
-0.206349
-0.206356
-0.206361
-0.206364
-0.206366
-0.206366
-0.206364
-0.206361
-0.206356
-0.20635
-0.206342
-0.206334
-0.206324
-0.206315
-0.206306
-0.206298
-0.206293
-0.206291
-0.206296
-0.206308
-0.233671
-0.233658
-0.233653
-0.233655
-0.233662
-0.233672
-0.233684
-0.233696
-0.233708
-0.23372
-0.23373
-0.233738
-0.233745
-0.233749
-0.233751
-0.23375
-0.233747
-0.233742
-0.233735
-0.233726
-0.233715
-0.233702
-0.233689
-0.233676
-0.233664
-0.233653
-0.233646
-0.233644
-0.23365
-0.233665
-0.26195
-0.261935
-0.26193
-0.261933
-0.261941
-0.261952
-0.261966
-0.26198
-0.261995
-0.262008
-0.26202
-0.26203
-0.262038
-0.262043
-0.262045
-0.262044
-0.26204
-0.262034
-0.262024
-0.262013
-0.261999
-0.261983
-0.261967
-0.261951
-0.261937
-0.261924
-0.261916
-0.261913
-0.26192
-0.261937
-0.291017
-0.291001
-0.290995
-0.290998
-0.291007
-0.29102
-0.291035
-0.291051
-0.291067
-0.291082
-0.291096
-0.291107
-0.291115
-0.291121
-0.291123
-0.291121
-0.291117
-0.291109
-0.291098
-0.291084
-0.291068
-0.291051
-0.291033
-0.291015
-0.290998
-0.290984
-0.290975
-0.290972
-0.290978
-0.290997
-0.320756
-0.320739
-0.320734
-0.320737
-0.320746
-0.32076
-0.320776
-0.320793
-0.32081
-0.320826
-0.320841
-0.320852
-0.320861
-0.320867
-0.320869
-0.320867
-0.320862
-0.320853
-0.320841
-0.320826
-0.320809
-0.32079
-0.32077
-0.32075
-0.320732
-0.320717
-0.320707
-0.320704
-0.320711
-0.32073
-0.351062
-0.351046
-0.351041
-0.351044
-0.351054
-0.351068
-0.351084
-0.351102
-0.35112
-0.351137
-0.351151
-0.351163
-0.351173
-0.351178
-0.35118
-0.351178
-0.351172
-0.351163
-0.35115
-0.351134
-0.351115
-0.351095
-0.351075
-0.351054
-0.351035
-0.35102
-0.351009
-0.351005
-0.351012
-0.351031
-0.381845
-0.381829
-0.381824
-0.381828
-0.381837
-0.381852
-0.381868
-0.381886
-0.381904
-0.381921
-0.381936
-0.381948
-0.381957
-0.381963
-0.381965
-0.381962
-0.381956
-0.381946
-0.381933
-0.381916
-0.381897
-0.381876
-0.381855
-0.381834
-0.381815
-0.381799
-0.381788
-0.381784
-0.381791
-0.381809
-0.413022
-0.413007
-0.413002
-0.413006
-0.413016
-0.41303
-0.413046
-0.413064
-0.413082
-0.413099
-0.413114
-0.413126
-0.413135
-0.413141
-0.413142
-0.41314
-0.413133
-0.413123
-0.413109
-0.413092
-0.413073
-0.413052
-0.41303
-0.413009
-0.412989
-0.412973
-0.412962
-0.412958
-0.412964
-0.412982
-0.444523
-0.444509
-0.444504
-0.444508
-0.444518
-0.444532
-0.444548
-0.444566
-0.444584
-0.444601
-0.444615
-0.444627
-0.444636
-0.444642
-0.444643
-0.44464
-0.444634
-0.444623
-0.444609
-0.444592
-0.444572
-0.444551
-0.444529
-0.444508
-0.444488
-0.444472
-0.444461
-0.444457
-0.444463
-0.444479
-0.476288
-0.476275
-0.476271
-0.476275
-0.476285
-0.476299
-0.476315
-0.476332
-0.47635
-0.476366
-0.476381
-0.476393
-0.476402
-0.476407
-0.476408
-0.476405
-0.476398
-0.476387
-0.476373
-0.476356
-0.476336
-0.476315
-0.476293
-0.476272
-0.476252
-0.476236
-0.476225
-0.476221
-0.476226
-0.476241
-0.508266
-0.508254
-0.508251
-0.508256
-0.508265
-0.508279
-0.508295
-0.508312
-0.50833
-0.508346
-0.508361
-0.508372
-0.508381
-0.508386
-0.508387
-0.508384
-0.508377
-0.508366
-0.508352
-0.508334
-0.508314
-0.508293
-0.508271
-0.50825
-0.50823
-0.508214
-0.508203
-0.508198
-0.508202
-0.508217
-0.540416
-0.540406
-0.540403
-0.540408
-0.540418
-0.540431
-0.540447
-0.540465
-0.540482
-0.540499
-0.540513
-0.540525
-0.540533
-0.540538
-0.540539
-0.540536
-0.540529
-0.540518
-0.540503
-0.540486
-0.540466
-0.540444
-0.540422
-0.5404
-0.540381
-0.540364
-0.540353
-0.540347
-0.540351
-0.540364
-0.572703
-0.572694
-0.572692
-0.572697
-0.572708
-0.572722
-0.572738
-0.572756
-0.572773
-0.57279
-0.572805
-0.572817
-0.572826
-0.572831
-0.572831
-0.572828
-0.572821
-0.572809
-0.572794
-0.572776
-0.572756
-0.572734
-0.572711
-0.572689
-0.572669
-0.572652
-0.57264
-0.572634
-0.572637
-0.572649
-0.605101
-0.605093
-0.605092
-0.605098
-0.605109
-0.605123
-0.60514
-0.605159
-0.605177
-0.605194
-0.605209
-0.605222
-0.605231
-0.605236
-0.605237
-0.605234
-0.605226
-0.605214
-0.605199
-0.60518
-0.605159
-0.605136
-0.605112
-0.60509
-0.605069
-0.605051
-0.605038
-0.605031
-0.605033
-0.605043
-0.637587
-0.637581
-0.637581
-0.637588
-0.6376
-0.637615
-0.637633
-0.637653
-0.637672
-0.63769
-0.637707
-0.63772
-0.637729
-0.637735
-0.637736
-0.637733
-0.637725
-0.637712
-0.637696
-0.637676
-0.637654
-0.63763
-0.637605
-0.637581
-0.637559
-0.63754
-0.637526
-0.637518
-0.637518
-0.637526
-0.670149
-0.670144
-0.670145
-0.670152
-0.670165
-0.670182
-0.670202
-0.670223
-0.670244
-0.670264
-0.670282
-0.670296
-0.670307
-0.670313
-0.670314
-0.67031
-0.670302
-0.670289
-0.670272
-0.67025
-0.670226
-0.6702
-0.670174
-0.670147
-0.670123
-0.670103
-0.670088
-0.670079
-0.670078
-0.670085
-0.70278
-0.702775
-0.702776
-0.702784
-0.702798
-0.702817
-0.702839
-0.702863
-0.702887
-0.702909
-0.702928
-0.702944
-0.702956
-0.702963
-0.702964
-0.702961
-0.702952
-0.702938
-0.702919
-0.702896
-0.70287
-0.702841
-0.702812
-0.702783
-0.702756
-0.702733
-0.702717
-0.702707
-0.702707
-0.702713
)
;

boundaryField
{
    floor
    {
        type            calculated;
        value           nonuniform List<scalar> 
30
(
0.000643817
0.000628688
0.000639039
0.000677285
0.000738951
0.000817739
0.000906652
0.0009992
0.00108978
0.00117372
0.00124733
0.0013078
0.00135311
0.00138188
0.00139326
0.00138684
0.00136258
0.00132086
0.00126254
0.0011891
0.00110269
0.00100635
0.000904075
0.000800967
0.00070314
0.000617592
0.000551792
0.000512296
0.000503496
0.000522323
)
;
    }
    ceiling
    {
        type            calculated;
        value           nonuniform List<scalar> 
30
(
-0.719121
-0.719116
-0.719118
-0.719126
-0.71914
-0.719159
-0.719182
-0.719205
-0.719229
-0.719251
-0.719271
-0.719287
-0.719299
-0.719305
-0.719307
-0.719303
-0.719294
-0.71928
-0.719261
-0.719238
-0.719212
-0.719183
-0.719154
-0.719125
-0.719098
-0.719075
-0.719058
-0.719049
-0.719048
-0.719054
)
;
    }
    fixedWalls
    {
        type            calculated;
        value           nonuniform List<scalar> 
60
(
0
-0.00254831
-0.00766904
-0.0153187
-0.0254248
-0.0378911
-0.0526017
-0.069425
-0.0882174
-0.108827
-0.131098
-0.154871
-0.179991
-0.206306
-0.233671
-0.26195
-0.291017
-0.320756
-0.351062
-0.381845
-0.413022
-0.444523
-0.476288
-0.508266
-0.540416
-0.572703
-0.605101
-0.637587
-0.670149
-0.70278
-0.000120894
-0.00266326
-0.00777604
-0.0154167
-0.0255133
-0.0379698
-0.0526706
-0.0694839
-0.0882663
-0.108866
-0.131127
-0.15489
-0.180001
-0.206308
-0.233665
-0.261937
-0.290997
-0.32073
-0.351031
-0.381809
-0.412982
-0.444479
-0.476241
-0.508217
-0.540364
-0.572649
-0.605043
-0.637526
-0.670085
-0.702713
)
;
    }
    frontAndBack
    {
        type            empty;
    }
}


// ************************************************************************* //
