/*--------------------------------*- C++ -*----------------------------------*\
| =========                 |                                                 |
| \\      /  F ield         | OpenFOAM: The Open Source CFD Toolbox           |
|  \\    /   O peration     | Version:  2412                                  |
|   \\  /    A nd           | Website:  www.openfoam.com                      |
|    \\/     M anipulation  |                                                 |
\*---------------------------------------------------------------------------*/
FoamFile
{
    version     2.0;
    format      ascii;
    arch        "LSB;label=32;scalar=64";
    class       volScalarField;
    location    "200";
    object      p_rgh;
}
// * * * * * * * * * * * * * * * * * * * * * * * * * * * * * * * * * * * * * //

dimensions      [0 2 -2 0 0 0 0];

internalField   nonuniform List<scalar> 
900
(
0.000643817
0.000628688
0.000639039
0.000677285
0.000738951
0.000817739
0.000906652
0.0009992
0.00108978
0.00117372
0.00124733
0.0013078
0.00135311
0.00138188
0.00139326
0.00138684
0.00136258
0.00132086
0.00126254
0.0011891
0.00110269
0.00100635
0.000904075
0.000800967
0.00070314
0.000617592
0.000551792
0.000512296
0.000503496
0.000522323
0.00322282
0.00321739
0.00323623
0.00327986
0.00334272
0.00341972
0.00350503
0.00359318
0.0036793
0.00375913
0.00382923
0.00388692
0.00393017
0.00395757
0.00396825
0.00396177
0.00393813
0.00389775
0.00384153
0.00377098
0.00368826
0.00359628
0.0034988
0.00340038
0.00330632
0.00322252
0.00315516
0.00310967
0.00309177
0.0031017
0.00825658
0.00827016
0.00830571
0.00836355
0.0084371
0.0085218
0.00861255
0.00870458
0.00879353
0.00887547
0.00894714
0.00900597
0.00905001
0.00907788
0.0090887
0.00908208
0.00905796
0.00901678
0.00895947
0.00888747
0.00880288
0.0087085
0.00860786
0.00850519
0.00840517
0.008313
0.00823417
0.00817362
0.00813835
0.00813026
0.0155941
0.0156379
0.0156992
0.0157798
0.0158728
0.0159738
0.0160782
0.0161814
0.0162797
0.0163692
0.0164469
0.0165103
0.0165577
0.0165876
0.0165993
0.0165925
0.0165669
0.0165231
0.0164618
0.0163845
0.0162932
0.0161904
0.0160795
0.0159646
0.0158498
0.01574
0.0156404
0.0155557
0.0154933
0.0154555
0.0250269
0.0251118
0.0252076
0.0253184
0.0254378
0.0255617
0.0256858
0.0258058
0.0259182
0.0260194
0.0261064
0.0261771
0.0262297
0.0262629
0.0262761
0.0262689
0.0262411
0.0261932
0.0261259
0.0260403
0.0259385
0.0258228
0.0256964
0.0255631
0.0254269
0.0252923
0.0251643
0.0250472
0.0249481
0.0248689
0.0362959
0.0364299
0.0365667
0.0367133
0.0368642
0.0370158
0.0371638
0.0373045
0.0374343
0.03755
0.0376487
0.0377284
0.0377875
0.0378249
0.0378399
0.0378322
0.0378018
0.0377487
0.0376738
0.037578
0.0374632
0.0373314
0.0371858
0.0370298
0.0368674
0.0367027
0.0365405
0.0363848
0.0362417
0.036112
0.049102
0.0492898
0.0494715
0.0496571
0.0498423
0.0500241
0.0501984
0.0503617
0.0505106
0.0506421
0.0507536
0.0508431
0.0509094
0.0509513
0.0509684
0.0509602
0.0509268
0.0508682
0.0507849
0.0506779
0.0505487
0.0503993
0.0502326
0.0500517
0.0498603
0.0496626
0.0494629
0.0492648
0.049073
0.0488872
0.0631184
0.0633614
0.0635891
0.0638144
0.0640345
0.0642468
0.0644476
0.0646336
0.0648016
0.0649489
0.065073
0.0651724
0.0652457
0.0652921
0.0653112
0.0653026
0.0652662
0.065202
0.0651105
0.0649923
0.0648488
0.0646818
0.0644937
0.0642876
0.0640669
0.0638356
0.0635975
0.0633558
0.0631138
0.0628698
0.0780044
0.0783008
0.0785728
0.0788362
0.0790895
0.0793305
0.0795562
0.0797633
0.0799489
0.0801106
0.0802463
0.0803545
0.0804342
0.0804847
0.0805056
0.0804965
0.0804574
0.0803882
0.0802892
0.0801609
0.0800043
0.079821
0.0796131
0.0793834
0.0791351
0.0788718
0.0785969
0.078313
0.0780219
0.0777209
0.0934184
0.0937637
0.0940761
0.0943738
0.0946567
0.0949231
0.0951702
0.0953954
0.0955959
0.0957696
0.0959148
0.0960303
0.0961152
0.096169
0.0961913
0.0961819
0.0961406
0.0960673
0.0959622
0.0958255
0.095658
0.095461
0.0952363
0.0949862
0.0947136
0.0944219
0.0941138
0.0937915
0.0934552
0.0931014
0.109031
0.109419
0.109766
0.110092
0.1104
0.110686
0.11095
0.11119
0.111401
0.111584
0.111736
0.111857
0.111945
0.112001
0.112025
0.112015
0.111972
0.111896
0.111786
0.111644
0.111468
0.111261
0.111023
0.110757
0.110465
0.11015
0.109815
0.109459
0.109084
0.108684
0.124537
0.124958
0.125332
0.125681
0.126007
0.126308
0.126584
0.126832
0.127051
0.127239
0.127395
0.127518
0.127608
0.127666
0.12769
0.12768
0.127636
0.127559
0.127447
0.127301
0.127121
0.126907
0.126661
0.126385
0.126079
0.125747
0.12539
0.125009
0.124602
0.124164
0.139663
0.140108
0.140501
0.140865
0.141202
0.141511
0.141793
0.142045
0.142267
0.142456
0.142613
0.142736
0.142827
0.142884
0.142908
0.142898
0.142855
0.142777
0.142665
0.142519
0.142338
0.142122
0.141873
0.141591
0.141278
0.140935
0.140565
0.140166
0.139737
0.139271
0.154174
0.154633
0.155037
0.155408
0.155749
0.156061
0.156343
0.156594
0.156813
0.157
0.157155
0.157276
0.157365
0.157421
0.157445
0.157435
0.157393
0.157317
0.157207
0.157063
0.156884
0.156671
0.156423
0.156141
0.155827
0.155481
0.155104
0.154696
0.154253
0.153771
0.167882
0.168345
0.16875
0.16912
0.169459
0.169767
0.170044
0.170289
0.170503
0.170684
0.170834
0.170951
0.171036
0.17109
0.171113
0.171104
0.171063
0.17099
0.170884
0.170745
0.170572
0.170364
0.170123
0.169847
0.169537
0.169195
0.168819
0.16841
0.167963
0.167474
0.18064
0.181098
0.181497
0.18186
0.18219
0.182488
0.182755
0.182991
0.183195
0.183368
0.183509
0.183621
0.183702
0.183753
0.183774
0.183765
0.183727
0.183658
0.183557
0.183425
0.183261
0.183063
0.182831
0.182566
0.182266
0.181933
0.181566
0.181164
0.180722
0.180235
0.19235
0.192794
0.19318
0.193529
0.193845
0.194129
0.194382
0.194604
0.194796
0.194958
0.19509
0.195194
0.19527
0.195317
0.195337
0.195329
0.195293
0.195229
0.195135
0.195012
0.194858
0.194672
0.194454
0.194203
0.193919
0.193601
0.193248
0.192859
0.19243
0.191956
0.202954
0.203377
0.203744
0.204075
0.204372
0.204638
0.204874
0.20508
0.205257
0.205406
0.205528
0.205623
0.205692
0.205736
0.205754
0.205747
0.205714
0.205655
0.20557
0.205457
0.205315
0.205144
0.204942
0.204708
0.204442
0.204143
0.20381
0.203441
0.203031
0.202577
0.212436
0.212832
0.213175
0.213482
0.213757
0.214002
0.214218
0.214407
0.214568
0.214703
0.214813
0.214899
0.214961
0.215
0.215017
0.21501
0.214981
0.214928
0.214852
0.21475
0.214621
0.214466
0.214282
0.214068
0.213824
0.213547
0.213238
0.212893
0.212509
0.212081
0.22081
0.221175
0.22149
0.221771
0.222022
0.222244
0.222439
0.222608
0.222752
0.222873
0.222971
0.223047
0.223102
0.223137
0.223151
0.223146
0.22312
0.223074
0.223006
0.222915
0.222801
0.222663
0.222498
0.222305
0.222084
0.221833
0.22155
0.221233
0.220878
0.220483
0.22812
0.228451
0.228736
0.228989
0.229214
0.229412
0.229585
0.229734
0.229861
0.229967
0.230052
0.230119
0.230167
0.230197
0.23021
0.230205
0.230183
0.230143
0.230084
0.230006
0.229907
0.229785
0.22964
0.229469
0.229273
0.229048
0.228793
0.228507
0.228185
0.227824
0.234433
0.234729
0.234982
0.235206
0.235404
0.235578
0.235729
0.235859
0.235968
0.236059
0.236132
0.236189
0.23623
0.236256
0.236267
0.236263
0.236245
0.236211
0.236161
0.236094
0.23601
0.235905
0.23578
0.235632
0.23546
0.235262
0.235037
0.234782
0.234495
0.234171
0.239834
0.240093
0.240314
0.240509
0.24068
0.24083
0.240959
0.241069
0.241161
0.241238
0.241299
0.241346
0.241381
0.241402
0.241412
0.241409
0.241394
0.241367
0.241326
0.24127
0.241199
0.241112
0.241006
0.24088
0.240733
0.240562
0.240367
0.240145
0.239892
0.239606
0.244417
0.24464
0.24483
0.244995
0.24514
0.245266
0.245373
0.245464
0.245541
0.245603
0.245653
0.245691
0.245719
0.245736
0.245744
0.245743
0.245731
0.245709
0.245677
0.245633
0.245575
0.245504
0.245417
0.245313
0.24519
0.245047
0.244881
0.244691
0.244473
0.244226
0.248287
0.248474
0.248633
0.248771
0.24889
0.248992
0.249079
0.249152
0.249212
0.249261
0.2493
0.24933
0.249351
0.249365
0.249371
0.24937
0.249362
0.249346
0.249322
0.249288
0.249244
0.249189
0.24912
0.249037
0.248938
0.24882
0.248683
0.248525
0.248342
0.248133
0.251554
0.251707
0.251835
0.251945
0.252039
0.252119
0.252186
0.252241
0.252286
0.252322
0.25235
0.252372
0.252387
0.252397
0.252402
0.252402
0.252397
0.252387
0.25237
0.252347
0.252316
0.252275
0.252225
0.252162
0.252086
0.251994
0.251885
0.251758
0.251609
0.251437
0.254331
0.254449
0.254548
0.254632
0.254702
0.25476
0.254807
0.254845
0.254875
0.254898
0.254916
0.254929
0.254939
0.254945
0.254948
0.254949
0.254947
0.254942
0.254934
0.25492
0.254902
0.254877
0.254843
0.254801
0.254747
0.25468
0.254599
0.254502
0.254386
0.254251
0.256734
0.256819
0.256888
0.256946
0.256992
0.257028
0.257056
0.257076
0.257092
0.257102
0.25711
0.257115
0.257118
0.257121
0.257123
0.257125
0.257126
0.257126
0.257125
0.257122
0.257116
0.257106
0.25709
0.257067
0.257036
0.256994
0.256941
0.256873
0.256791
0.256692
0.258882
0.258933
0.258974
0.259006
0.259028
0.259042
0.25905
0.259053
0.259053
0.259051
0.259047
0.259044
0.259042
0.259041
0.259041
0.259044
0.259048
0.259054
0.259061
0.259068
0.259075
0.25908
0.259082
0.25908
0.259071
0.259055
0.259029
0.258992
0.258943
0.25888
0.260894
0.260914
0.260927
0.260932
0.26093
0.260922
0.260909
0.260893
0.260877
0.260861
0.260846
0.260834
0.260825
0.26082
0.260819
0.260822
0.26083
0.260841
0.260857
0.260875
0.260895
0.260917
0.260938
0.260957
0.260973
0.260983
0.260986
0.260979
0.260963
0.260937
)
;

boundaryField
{
    floor
    {
        type            fixedFluxPressure;
        gradient        uniform 0;
        value           nonuniform List<scalar> 
30
(
0.000643817
0.000628688
0.000639039
0.000677285
0.000738951
0.000817739
0.000906652
0.0009992
0.00108978
0.00117372
0.00124733
0.0013078
0.00135311
0.00138188
0.00139326
0.00138684
0.00136258
0.00132086
0.00126254
0.0011891
0.00110269
0.00100635
0.000904075
0.000800967
0.00070314
0.000617592
0.000551792
0.000512296
0.000503496
0.000522323
)
;
    }
    ceiling
    {
        type            fixedFluxPressure;
        gradient        nonuniform List<scalar> 
30
(
0.595829
0.586463
0.577723
0.569707
0.562445
0.555937
0.550174
0.545142
0.540824
0.5372
0.534248
0.531953
0.530298
0.529273
0.528873
0.529099
0.529958
0.531462
0.53363
0.536486
0.540056
0.54437
0.549462
0.555362
0.562102
0.569715
0.578242
0.587741
0.598333
0.610359
)
;
        value           nonuniform List<scalar> 
30
(
0.261879
0.261884
0.261882
0.261874
0.26186
0.261841
0.261818
0.261795
0.261771
0.261749
0.261729
0.261713
0.261701
0.261695
0.261693
0.261697
0.261706
0.26172
0.261739
0.261762
0.261788
0.261817
0.261846
0.261875
0.261902
0.261925
0.261942
0.261951
0.261952
0.261946
)
;
    }
    fixedWalls
    {
        type            fixedFluxPressure;
        gradient        uniform 0;
        value           nonuniform List<scalar> 
60
(
0.000643817
0.00322282
0.00825658
0.0155941
0.0250269
0.0362959
0.049102
0.0631184
0.0780044
0.0934184
0.109031
0.124537
0.139663
0.154174
0.167882
0.18064
0.19235
0.202954
0.212436
0.22081
0.22812
0.234433
0.239834
0.244417
0.248287
0.251554
0.254331
0.256734
0.258882
0.260894
0.000522323
0.0031017
0.00813026
0.0154555
0.0248689
0.036112
0.0488872
0.0628698
0.0777209
0.0931014
0.108684
0.124164
0.139271
0.153771
0.167474
0.180235
0.191956
0.202577
0.212081
0.220483
0.227824
0.234171
0.239606
0.244226
0.248133
0.251437
0.254251
0.256692
0.25888
0.260937
)
;
    }
    frontAndBack
    {
        type            empty;
    }
}


// ************************************************************************* //
