/*--------------------------------*- C++ -*----------------------------------*\
| =========                 |                                                 |
| \\      /  F ield         | OpenFOAM: The Open Source CFD Toolbox           |
|  \\    /   O peration     | Version:  2412                                  |
|   \\  /    A nd           | Website:  www.openfoam.com                      |
|    \\/     M anipulation  |                                                 |
\*---------------------------------------------------------------------------*/
FoamFile
{
    version     2.0;
    format      ascii;
    arch        "LSB;label=32;scalar=64";
    class       surfaceScalarField;
    location    "200";
    object      phi;
}
// * * * * * * * * * * * * * * * * * * * * * * * * * * * * * * * * * * * * * //

dimensions      [0 3 -1 0 0 0 0];

oriented        oriented;

internalField   nonuniform List<scalar> 
1740
(
-9.2464e-09
9.2442e-09
-3.17633e-08
2.25161e-08
-5.95854e-08
2.78256e-08
-8.62108e-08
2.6617e-08
-1.07665e-07
2.14531e-08
-1.21947e-07
1.42875e-08
-1.28434e-07
6.49345e-09
-1.27382e-07
-1.05611e-09
-1.19537e-07
-7.85245e-09
-1.05905e-07
-1.36372e-08
-8.75851e-08
-1.83233e-08
-6.56571e-08
-2.19294e-08
-4.11315e-08
-2.45269e-08
-1.49346e-08
-2.61988e-08
1.20751e-08
-2.70122e-08
3.90697e-08
-2.69966e-08
6.52037e-08
-2.61337e-08
8.95679e-08
-2.43634e-08
1.11157e-07
-2.15925e-08
1.28866e-07
-1.77148e-08
1.41511e-07
-1.26499e-08
1.47896e-07
-6.38764e-09
1.46935e-07
9.59625e-10
1.37845e-07
9.09181e-09
1.2042e-07
1.74299e-08
9.54409e-08
2.49854e-08
6.52176e-08
3.02245e-08
3.42157e-08
3.09982e-08
9.62867e-09
2.45852e-08
9.63738e-09
-2.47695e-08
3.40142e-08
-7.61952e-08
7.39514e-08
-1.3734e-07
8.8991e-08
-1.95793e-07
8.50797e-08
-2.43454e-07
6.91035e-08
-2.75829e-07
4.66496e-08
-2.91162e-07
2.1827e-08
-2.89618e-07
-2.59665e-09
-2.72564e-07
-2.49031e-08
-2.42059e-07
-4.41411e-08
-2.0047e-07
-5.99099e-08
-1.50229e-07
-7.21687e-08
-9.36822e-08
-8.10704e-08
-3.30463e-08
-8.68297e-08
2.95753e-08
-8.96282e-08
9.21241e-08
-8.95428e-08
1.52507e-07
-8.6516e-08
2.08515e-07
-8.03682e-08
2.57764e-07
-7.08367e-08
2.97694e-07
-5.76443e-08
3.25655e-07
-4.06114e-08
3.39076e-07
-1.98038e-08
3.35749e-07
4.29334e-09
3.14264e-07
3.05807e-08
2.74589e-07
5.71018e-08
2.18829e-07
8.07354e-08
1.52124e-07
9.69213e-08
8.35508e-08
9.95685e-08
2.67835e-08
8.13611e-08
3.64252e-08
-3.33735e-08
6.73904e-08
-1.00632e-07
1.41196e-07
-1.79575e-07
1.67937e-07
-2.54993e-07
1.60512e-07
-3.16866e-07
1.30979e-07
-3.59404e-07
8.91811e-08
-3.80113e-07
4.25263e-08
-3.78899e-07
-3.81441e-09
-3.57285e-07
-4.65171e-08
-3.1777e-07
-8.36544e-08
-2.6335e-07
-1.1433e-07
-1.9718e-07
-1.38339e-07
-1.22383e-07
-1.5587e-07
-4.19624e-08
-1.67251e-07
4.1185e-08
-1.72774e-07
1.24202e-07
-1.72559e-07
2.04185e-07
-1.66503e-07
2.78103e-07
-1.54292e-07
3.42738e-07
-1.35478e-07
3.94704e-07
-1.09616e-07
4.30566e-07
-7.6479e-08
4.47078e-07
-3.63199e-08
4.41567e-07
9.80217e-09
4.12476e-07
5.96695e-08
3.60071e-07
1.09501e-07
2.873e-07
1.53495e-07
2.00752e-07
1.8346e-07
1.11634e-07
1.88685e-07
3.66958e-08
1.56313e-07
7.31152e-08
-3.5927e-08
1.03328e-07
-1.08486e-07
2.13747e-07
-1.93685e-07
2.53122e-07
-2.75267e-07
2.42095e-07
-3.42543e-07
1.98263e-07
-3.8923e-07
1.35873e-07
-4.12464e-07
6.57599e-08
-4.1192e-07
-4.35708e-09
-3.89043e-07
-6.93911e-08
-3.46391e-07
-1.26302e-07
-2.87131e-07
-1.73586e-07
-2.14678e-07
-2.10789e-07
-1.32479e-07
-2.38069e-07
-4.3904e-08
-2.55827e-07
4.77568e-08
-2.64434e-07
1.39238e-07
-2.64037e-07
2.27223e-07
-2.54487e-07
3.08278e-07
-2.35347e-07
3.78805e-07
-2.06007e-07
4.3508e-07
-1.65896e-07
4.7339e-07
-1.14797e-07
4.90308e-07
-5.32442e-08
4.83093e-07
1.70075e-08
4.50276e-07
9.24756e-08
3.92372e-07
1.67394e-07
3.12735e-07
2.33126e-07
2.18495e-07
2.77701e-07
1.216e-07
2.85592e-07
3.99951e-08
2.37923e-07
1.13105e-07
-3.43286e-08
1.37663e-07
-1.04384e-07
2.83808e-07
-1.87119e-07
3.35846e-07
-2.66723e-07
3.21691e-07
-3.3275e-07
2.6429e-07
-3.78978e-07
1.82102e-07
-4.02445e-07
8.92307e-08
-4.0265e-07
-4.14915e-09
-3.80831e-07
-9.12097e-08
-3.39356e-07
-1.67777e-07
-2.81249e-07
-2.31694e-07
-2.09839e-07
-2.82199e-07
-1.28547e-07
-3.19363e-07
-4.07725e-08
-3.43606e-07
5.01313e-08
-3.5534e-07
1.40817e-07
-3.54723e-07
2.2789e-07
-3.41559e-07
3.07857e-07
-3.15311e-07
3.77102e-07
-2.75248e-07
4.31937e-07
-2.20729e-07
4.68746e-07
-1.51609e-07
4.84253e-07
-6.87574e-08
4.7592e-07
2.53339e-08
4.42489e-07
1.25902e-07
3.8466e-07
2.25226e-07
3.05865e-07
3.1193e-07
2.13158e-07
3.70422e-07
1.18233e-07
3.80531e-07
3.86482e-08
3.17502e-07
1.51762e-07
-3.00979e-08
1.67753e-07
-9.23189e-08
3.4604e-07
-1.6639e-07
4.09917e-07
-2.38118e-07
3.93414e-07
-2.98015e-07
3.24186e-07
-3.40335e-07
2.24422e-07
-3.62242e-07
1.1114e-07
-3.63108e-07
-3.28176e-09
-3.43893e-07
-1.10424e-07
-3.06621e-07
-2.0505e-07
-2.53958e-07
-2.84359e-07
-1.88905e-07
-3.47255e-07
-1.14598e-07
-3.93671e-07
-3.42063e-08
-4.24e-07
4.91128e-08
-4.38658e-07
1.32191e-07
-4.37795e-07
2.11814e-07
-4.21176e-07
2.84698e-07
-3.88191e-07
3.47485e-07
-3.38032e-07
3.96797e-07
-2.7004e-07
4.2938e-07
-1.84192e-07
4.42342e-07
-8.17212e-08
4.3351e-07
3.41635e-08
4.0191e-07
1.57504e-07
3.48353e-07
2.78793e-07
2.76114e-07
3.84184e-07
1.91704e-07
4.5484e-07
1.05795e-07
4.66441e-07
3.43007e-08
3.88992e-07
1.86075e-07
-2.43636e-08
1.92105e-07
-7.54548e-08
3.97132e-07
-1.36839e-07
4.71304e-07
-1.96742e-07
4.53315e-07
-2.47165e-07
3.74605e-07
-2.83154e-07
2.60412e-07
-3.0217e-07
1.30156e-07
-3.03514e-07
-1.93803e-09
-2.87842e-07
-1.26096e-07
-2.56738e-07
-2.36154e-07
-2.12378e-07
-3.28723e-07
-1.5727e-07
-4.02367e-07
-9.40897e-08
-4.56852e-07
-2.5589e-08
-4.92502e-07
4.54571e-08
-5.09704e-07
1.16251e-07
-5.08583e-07
1.83957e-07
-4.88875e-07
2.45694e-07
-4.49922e-07
2.98553e-07
-3.9089e-07
3.39659e-07
-3.11149e-07
3.66292e-07
-2.1083e-07
3.76092e-07
-9.15278e-08
3.67354e-07
4.28973e-08
3.39413e-07
1.85443e-07
2.93129e-07
3.2508e-07
2.31429e-07
4.45886e-07
1.59943e-07
5.26319e-07
8.7745e-08
5.38631e-07
2.82005e-08
4.48547e-07
2.14273e-07
-1.79416e-08
2.10042e-07
-5.62074e-08
4.35393e-07
-1.02696e-07
5.17794e-07
-1.48504e-07
4.99124e-07
-1.8745e-07
4.13551e-07
-2.15603e-07
2.88565e-07
-2.30838e-07
1.45391e-07
-2.32446e-07
-3.2977e-10
-2.20779e-07
-1.37762e-07
-1.9694e-07
-2.5999e-07
-1.62541e-07
-3.63122e-07
-1.19508e-07
-4.45404e-07
-6.99444e-08
-5.06416e-07
-1.60662e-08
-5.46381e-07
3.98596e-08
-5.65631e-07
9.55326e-08
-5.64256e-07
1.48623e-07
-5.41965e-07
1.96786e-07
-4.98085e-07
2.37688e-07
-4.31795e-07
2.69067e-07
-3.42536e-07
2.88841e-07
-2.30614e-07
2.95262e-07
-9.79567e-08
2.87134e-07
5.10203e-08
2.64107e-07
2.08468e-07
2.27025e-07
3.62158e-07
1.78334e-07
4.94568e-07
1.22545e-07
5.82097e-07
6.67585e-08
5.94417e-07
2.12389e-08
4.94084e-07
2.35503e-07
-1.142e-08
2.21463e-07
-3.63893e-08
4.60358e-07
-6.72256e-08
5.48629e-07
-9.8057e-08
5.29956e-07
-1.24671e-07
4.40168e-07
-1.44276e-07
3.0817e-07
-1.55247e-07
1.56365e-07
-1.56916e-07
1.34117e-09
-1.49353e-07
-1.45323e-07
-1.33181e-07
-2.76159e-07
-1.09426e-07
-3.86876e-07
-7.93912e-08
-4.75442e-07
-4.45626e-08
-5.41246e-07
-6.55513e-09
-5.84389e-07
3.29413e-08
-6.05129e-07
7.21942e-08
-6.03513e-07
1.09453e-07
-5.79228e-07
1.42978e-07
-5.31614e-07
1.71074e-07
-4.59895e-07
1.92153e-07
-3.63618e-07
2.04807e-07
-2.43272e-07
2.07922e-07
-1.01072e-07
2.00817e-07
5.81268e-08
1.83432e-07
2.25855e-07
1.56547e-07
3.8904e-07
1.22039e-07
5.29069e-07
8.31647e-08
6.20974e-07
4.48586e-08
6.32739e-07
1.40611e-08
5.24889e-07
2.49571e-07
-5.21129e-09
2.26677e-07
-1.73255e-08
4.72472e-07
-3.2871e-08
5.64176e-07
-4.89438e-08
5.4603e-07
-6.32988e-08
4.54526e-07
-7.43066e-08
3.1918e-07
-8.08867e-08
1.6295e-07
-8.24494e-08
2.90916e-09
-7.88248e-08
-1.48946e-07
-7.0183e-08
-2.84798e-07
-5.6981e-08
-4.00074e-07
-3.99093e-08
-4.92513e-07
-1.98317e-08
-5.61324e-07
2.24997e-09
-6.06471e-07
2.52468e-08
-6.28126e-07
4.80193e-08
-6.26287e-07
6.94199e-08
-6.00631e-07
8.83338e-08
-5.50529e-07
1.03722e-07
-4.75281e-07
1.14668e-07
-3.7456e-07
1.20435e-07
-2.49033e-07
1.2052e-07
-1.01152e-07
1.14729e-07
6.39213e-08
1.03257e-07
2.37328e-07
8.67819e-08
4.05514e-07
6.65665e-08
5.49288e-07
4.45686e-08
6.42987e-07
2.35376e-08
6.53783e-07
7.14493e-09
5.41275e-07
2.56728e-07
4.06372e-10
2.26272e-07
5.80869e-11
4.72821e-07
-1.37646e-09
5.65611e-07
-3.72858e-09
5.48383e-07
-6.60281e-09
4.57399e-07
-9.48501e-09
3.22061e-07
-1.18379e-08
1.65305e-07
-1.31786e-08
4.25441e-09
-1.31395e-08
-1.48983e-07
-1.1492e-08
-2.86444e-07
-8.1738e-09
-4.03387e-07
-3.30235e-09
-4.9738e-07
2.84805e-09
-5.6747e-07
9.86413e-09
-6.13486e-07
1.72423e-08
-6.35501e-07
2.44225e-08
-6.33467e-07
3.0847e-08
-6.07056e-07
3.60091e-08
-5.55688e-07
3.94958e-08
-4.78764e-07
4.10304e-08
-3.76089e-07
4.04995e-08
-2.48495e-07
3.79638e-08
-9.8613e-08
3.36612e-08
6.8221e-08
2.79976e-08
2.42986e-07
2.15185e-08
4.11992e-07
1.48724e-08
5.55941e-07
8.75644e-09
6.49112e-07
3.85706e-09
6.58673e-07
8.22027e-10
5.44304e-07
2.57542e-07
5.25936e-09
2.21014e-07
1.51685e-08
4.6291e-07
2.61171e-08
5.54659e-07
3.58779e-08
5.3862e-07
4.32069e-08
4.50069e-07
4.76047e-08
3.17661e-07
4.90974e-08
1.63809e-07
4.8046e-08
5.30833e-09
4.49701e-08
-1.45904e-07
4.04309e-08
-2.81901e-07
3.49391e-08
-3.97888e-07
2.88857e-08
-4.91319e-07
2.25279e-08
-5.61104e-07
1.59905e-08
-6.06946e-07
9.30909e-09
-6.28817e-07
2.46205e-09
-6.26622e-07
-4.56179e-09
-6.00035e-07
-1.17074e-08
-5.48542e-07
-1.88151e-08
-4.71653e-07
-2.55888e-08
-3.69313e-07
-3.15892e-08
-2.42494e-07
-3.6264e-08
-9.39408e-08
-3.90088e-08
7.09597e-08
-3.92585e-08
2.43232e-07
-3.66188e-08
4.09354e-07
-3.10254e-08
5.50355e-07
-2.29285e-08
6.41013e-07
-1.34771e-08
6.49208e-07
-4.71445e-09
5.35549e-07
2.52814e-07
9.25552e-09
2.11756e-07
2.76804e-08
4.44481e-07
4.89704e-08
5.33365e-07
6.88978e-08
5.18686e-07
8.48422e-08
4.34125e-07
9.54348e-08
3.07068e-07
1.00247e-07
1.58992e-07
9.95097e-08
6.04501e-09
9.38504e-08
-1.4024e-07
8.4093e-08
-2.7214e-07
7.11139e-08
-3.84903e-07
5.57318e-08
-4.75931e-07
3.86604e-08
-5.44028e-07
2.04937e-08
-5.8878e-07
1.74162e-09
-6.10065e-07
-1.71369e-08
-6.07743e-07
-3.56698e-08
-5.81505e-07
-5.33098e-08
-5.30904e-07
-6.9398e-08
-4.55565e-07
-8.31457e-08
-3.55567e-07
-9.365e-08
-2.31994e-07
-9.99535e-08
-8.76409e-08
-1.0116e-07
7.21659e-08
-9.6596e-08
2.38674e-07
-8.60272e-08
3.98795e-07
-6.99125e-08
5.34243e-07
-4.9685e-08
6.20777e-07
-2.80514e-08
6.27582e-07
-9.35579e-09
5.16858e-07
2.43472e-07
1.23692e-08
1.99384e-07
3.74871e-08
4.1936e-07
6.69521e-08
5.03899e-07
9.49613e-08
4.90672e-07
1.17792e-07
4.11292e-07
1.33377e-07
2.91485e-07
1.40904e-07
1.51462e-07
1.40473e-07
6.47207e-09
1.32778e-07
-1.32543e-07
1.18835e-07
-2.58195e-07
9.98048e-08
-3.6587e-07
7.68446e-08
-4.52968e-07
5.10402e-08
-5.18221e-07
2.33765e-08
-5.61117e-07
-5.24014e-09
-5.8145e-07
-3.394e-08
-5.79041e-07
-6.18392e-08
-5.53604e-07
-8.79799e-08
-5.04765e-07
-1.11291e-07
-4.32259e-07
-1.3058e-07
-3.36283e-07
-1.44575e-07
-2.18006e-07
-1.52007e-07
-8.02139e-08
-1.51765e-07
7.19252e-08
-1.43114e-07
2.3003e-07
-1.25975e-07
3.81658e-07
-1.01246e-07
5.09503e-07
-7.11605e-08
5.90682e-07
-3.97004e-08
5.96132e-07
-1.30395e-08
4.90185e-07
2.30441e-07
1.46285e-08
1.84753e-07
4.46563e-08
3.89335e-07
8.01598e-08
4.68403e-07
1.1418e-07
4.56652e-07
1.42168e-07
3.833e-07
1.61526e-07
2.72128e-07
1.71139e-07
1.41848e-07
1.70986e-07
6.62023e-09
1.61785e-07
-1.23344e-07
1.44683e-07
-2.41095e-07
1.2104e-07
-3.42228e-07
9.22688e-08
-4.24195e-07
5.97394e-08
-4.85688e-07
2.47473e-08
-5.26121e-07
-1.14858e-08
-5.45219e-07
-4.77603e-08
-5.42768e-07
-8.28551e-08
-5.18507e-07
-1.15483e-07
-4.72139e-07
-1.4425e-07
-4.03499e-07
-1.67657e-07
-3.12885e-07
-1.84154e-07
-2.01517e-07
-1.92252e-07
-7.21209e-08
-1.907e-07
7.03726e-08
-1.78743e-07
2.18072e-07
-1.56438e-07
3.59345e-07
-1.25032e-07
4.78085e-07
-8.73833e-08
5.53037e-07
-4.84646e-08
5.57208e-07
-1.57801e-08
4.57502e-07
2.14645e-07
1.6103e-08
1.68651e-07
4.93856e-08
3.56056e-07
8.89364e-08
4.28864e-07
1.27029e-07
4.18566e-07
1.58549e-07
3.51772e-07
1.80524e-07
2.50149e-07
1.91618e-07
1.30754e-07
1.91701e-07
6.53282e-09
1.81483e-07
-1.1313e-07
1.62183e-07
-2.21799e-07
1.35289e-07
-3.15336e-07
1.02383e-07
-3.9129e-07
6.50401e-08
-4.48345e-07
2.47866e-08
-4.8586e-07
-1.69142e-08
-5.03514e-07
-5.86151e-08
-5.01069e-07
-9.88381e-08
-4.78285e-07
-1.36043e-07
-4.34934e-07
-1.68598e-07
-3.70945e-07
-1.94787e-07
-2.86696e-07
-2.12875e-07
-1.83425e-07
-2.21233e-07
-6.37567e-08
-2.18538e-07
6.7682e-08
-2.04045e-07
2.03577e-07
-1.77927e-07
3.33226e-07
-1.41697e-07
4.41865e-07
-9.86782e-08
5.10037e-07
-5.45236e-08
5.13046e-07
-1.7663e-08
4.20655e-07
1.9698e-07
1.6889e-08
1.5177e-07
5.19656e-08
3.2098e-07
9.37972e-08
3.87037e-07
1.34237e-07
3.78133e-07
1.67841e-07
3.18163e-07
1.914e-07
2.26584e-07
2.03424e-07
1.18727e-07
2.03695e-07
6.2573e-09
1.92891e-07
-1.02331e-07
1.72252e-07
-2.01163e-07
1.43326e-07
-2.86414e-07
1.07799e-07
-3.55764e-07
6.73715e-08
-4.0792e-07
2.37264e-08
-4.4221e-07
-2.14978e-08
-4.5828e-07
-6.66771e-08
-4.55884e-07
-1.10155e-07
-4.34804e-07
-1.50216e-07
-3.94871e-07
-1.85064e-07
-3.36092e-07
-2.1285e-07
-2.58903e-07
-2.31731e-07
-1.64535e-07
-2.40013e-07
-5.54679e-08
-2.36351e-07
6.40203e-08
-2.20034e-07
1.87254e-07
-1.9134e-07
3.04531e-07
-1.51975e-07
4.02508e-07
-1.05569e-07
4.63624e-07
-5.81587e-08
4.65634e-07
-1.87773e-08
3.81253e-07
1.78206e-07
1.70941e-08
1.34687e-07
5.27417e-08
2.85332e-07
9.5366e-08
3.44404e-07
1.36693e-07
3.3681e-07
1.71153e-07
2.83705e-07
1.95414e-07
2.02318e-07
2.07896e-07
1.06243e-07
2.08308e-07
5.83904e-09
1.97279e-07
-9.1309e-08
1.76029e-07
-1.79919e-07
1.46118e-07
-2.56505e-07
1.09268e-07
-3.18912e-07
6.72484e-08
-3.659e-07
2.18274e-08
-3.96787e-07
-2.52447e-08
-4.11201e-07
-7.2226e-08
-4.08896e-07
-1.17348e-07
-3.8968e-07
-1.58786e-07
-3.53432e-07
-1.94654e-07
-3.00221e-07
-2.23034e-07
-2.3052e-07
-2.42046e-07
-1.4552e-07
-2.49987e-07
-4.75271e-08
-2.45533e-07
5.95638e-08
-2.28026e-07
1.69747e-07
-1.97836e-07
2.74347e-07
-1.56798e-07
3.6147e-07
-1.08695e-07
4.15497e-07
-5.97437e-08
4.16682e-07
-1.92253e-08
3.40716e-07
1.58969e-07
1.68355e-08
1.17855e-07
5.20809e-08
2.50091e-07
9.43145e-08
3.02156e-07
1.35359e-07
2.95764e-07
1.6968e-07
2.49385e-07
1.93929e-07
1.78065e-07
2.06483e-07
9.36845e-08
2.06995e-07
5.32156e-09
1.96033e-07
-8.03513e-08
1.74765e-07
-1.58655e-07
1.44718e-07
-2.26459e-07
1.07606e-07
-2.81799e-07
6.52162e-08
-3.23509e-07
1.93469e-08
-3.50923e-07
-2.81967e-08
-3.63662e-07
-7.56059e-08
-3.61484e-07
-1.21052e-07
-3.44228e-07
-1.62661e-07
-3.11815e-07
-1.98516e-07
-2.64357e-07
-2.26686e-07
-2.02341e-07
-2.45307e-07
-1.26894e-07
-2.52711e-07
-4.01215e-08
-2.47629e-07
5.44882e-08
-2.29474e-07
1.51606e-07
-1.98694e-07
2.4358e-07
-1.5719e-07
3.19962e-07
-1.08761e-07
3.6707e-07
-5.96759e-08
3.67586e-07
-1.91512e-08
3.00204e-07
1.39822e-07
1.62371e-08
1.01612e-07
5.03495e-08
2.15987e-07
9.13075e-08
2.61188e-07
1.31186e-07
2.55878e-07
1.64615e-07
2.15956e-07
1.88307e-07
1.54369e-07
2.00637e-07
8.13529e-08
2.01214e-07
4.74269e-09
1.90537e-07
-6.96763e-08
1.69706e-07
-1.37823e-07
1.40177e-07
-1.96936e-07
1.03624e-07
-2.45248e-07
6.18128e-08
-2.81692e-07
1.65339e-08
-3.05643e-07
-3.04024e-08
-3.16729e-07
-7.71689e-08
-3.1472e-07
-1.21919e-07
-2.99476e-07
-1.62774e-07
-2.70956e-07
-1.97827e-07
-2.29299e-07
-2.25182e-07
-1.74985e-07
-2.43027e-07
-1.09054e-07
-2.49765e-07
-3.33891e-08
-2.44209e-07
4.89317e-08
-2.25852e-07
1.33252e-07
-1.95204e-07
2.12922e-07
-1.54167e-07
2.78907e-07
-1.0649e-07
3.194e-07
-5.83276e-08
3.19407e-07
-1.86799e-08
2.60546e-07
1.21145e-07
1.54162e-08
8.61859e-08
4.78928e-08
1.83516e-07
8.69612e-08
2.22117e-07
1.2506e-07
2.1777e-07
1.57067e-07
1.83949e-07
1.79814e-07
1.3162e-07
1.91707e-07
6.94631e-08
1.92321e-07
4.13089e-09
1.82082e-07
-5.94409e-08
1.62011e-07
-1.17747e-07
1.33481e-07
-1.68405e-07
9.80877e-08
-2.0986e-07
5.75447e-08
-2.41152e-07
1.3612e-08
-2.61712e-07
-3.19271e-08
-2.71195e-07
-7.72656e-08
-2.69385e-07
-1.20576e-07
-2.56167e-07
-1.60008e-07
-2.31523e-07
-1.93701e-07
-1.95604e-07
-2.1982e-07
-1.48864e-07
-2.36633e-07
-9.22352e-08
-2.4264e-07
-2.73742e-08
-2.36751e-07
4.30547e-08
-2.18546e-07
1.1505e-07
-1.88566e-07
1.82937e-07
-1.48683e-07
2.3903e-07
-1.02561e-07
2.73276e-07
-5.60834e-08
2.7295e-07
-1.79229e-08
2.22388e-07
1.03221e-07
1.44726e-08
7.17038e-08
4.50139e-08
1.52971e-07
8.18129e-08
1.85321e-07
1.17749e-07
1.81827e-07
1.47997e-07
1.53703e-07
1.69549e-07
1.10069e-07
1.80859e-07
5.81545e-08
1.81487e-07
3.50892e-09
1.71788e-07
-4.97408e-08
1.52689e-07
-9.86446e-08
1.25475e-07
-1.41187e-07
9.16505e-08
-1.76038e-07
5.28527e-08
-2.0236e-07
1.07856e-08
-2.19648e-07
-3.28151e-08
-2.27595e-07
-7.61892e-08
-2.26012e-07
-1.17556e-07
-2.14803e-07
-1.55121e-07
-1.93964e-07
-1.8709e-07
-1.63644e-07
-2.11713e-07
-1.2425e-07
-2.27354e-07
-7.65967e-08
-2.32622e-07
-2.21038e-08
-2.26536e-07
3.69686e-08
-2.08749e-07
9.72548e-08
-1.79823e-07
1.54007e-07
-1.4158e-07
2.00803e-07
-9.75407e-08
2.29223e-07
-5.32814e-08
2.28691e-07
-1.7003e-08
1.86118e-07
8.62228e-08
1.34834e-08
5.82148e-08
4.19513e-08
1.24494e-07
7.62858e-08
1.50992e-07
1.09853e-07
1.48256e-07
1.38154e-07
1.25406e-07
1.58366e-07
8.98609e-08
1.69009e-07
4.75157e-08
1.69632e-07
2.89335e-09
1.60529e-07
-4.06346e-08
1.42531e-07
-8.06474e-08
1.16829e-07
-1.15483e-07
8.48336e-08
-1.44042e-07
4.80895e-08
-1.65622e-07
8.22488e-09
-1.7979e-07
-3.30897e-08
-1.86283e-07
-7.41577e-08
-1.84945e-07
-1.13265e-07
-1.75696e-07
-1.48691e-07
-1.58541e-07
-1.78723e-07
-1.33616e-07
-2.01711e-07
-1.01267e-07
-2.16129e-07
-6.21802e-08
-2.207e-07
-1.75359e-08
-2.14543e-07
3.08035e-08
-1.97376e-07
8.00811e-08
-1.69777e-07
1.26414e-07
-1.3352e-07
1.64542e-07
-9.18855e-08
1.87604e-07
-5.01558e-08
1.86952e-07
-1.59965e-08
1.5195e-07
7.02243e-08
1.24979e-08
4.57176e-08
3.88538e-08
9.81281e-08
7.06455e-08
1.19205e-07
1.0175e-07
1.17146e-07
1.28013e-07
9.91481e-08
1.46808e-07
7.10735e-08
1.56731e-07
3.75942e-08
1.57334e-07
2.30009e-09
1.48858e-07
-3.21453e-08
1.32042e-07
-6.38239e-08
1.07978e-07
-9.1412e-08
7.79795e-08
-1.14037e-07
4.34968e-08
-1.31136e-07
6.0658e-09
-1.4236e-07
-3.27259e-08
-1.47495e-07
-7.1261e-08
-1.46413e-07
-1.07907e-07
-1.39053e-07
-1.41029e-07
-1.25423e-07
-1.69012e-07
-1.05633e-07
-1.90311e-07
-7.99666e-08
-2.03516e-07
-4.89734e-08
-2.07461e-07
-1.35943e-08
-2.01357e-07
2.46947e-08
-1.84982e-07
6.37109e-08
-1.58923e-07
1.00369e-07
-1.24874e-07
1.30477e-07
-8.58911e-08
1.48631e-07
-4.68759e-08
1.47947e-07
-1.49578e-08
1.20034e-07
5.52726e-08
1.1523e-08
3.42003e-08
3.57461e-08
7.38931e-08
6.49472e-08
9.00147e-08
9.35319e-08
8.85641e-08
1.17691e-07
7.49911e-08
1.35013e-07
5.37593e-08
1.44181e-07
2.84272e-08
1.4475e-07
1.7312e-09
1.36922e-07
-2.43107e-08
1.21357e-07
-4.82533e-08
9.90461e-08
-6.90983e-08
7.12018e-08
-8.61878e-08
3.91733e-08
-9.91015e-08
4.39389e-09
-1.07576e-07
-3.16488e-08
-1.11452e-07
-6.74353e-08
-1.10631e-07
-1.01432e-07
-1.05065e-07
-1.32104e-07
-9.47597e-08
-1.57947e-07
-7.97973e-08
-1.77528e-07
-6.03916e-08
-1.89554e-07
-3.69562e-08
-1.92961e-07
-1.01976e-08
-1.87046e-07
1.87746e-08
-1.71642e-07
4.83084e-08
-1.47338e-07
7.60565e-08
-1.15685e-07
9.88355e-08
-7.95632e-08
1.12494e-07
-4.34511e-08
1.11825e-07
-1.38927e-08
9.04638e-08
4.13823e-08
1.05054e-08
2.37012e-08
3.24906e-08
5.1896e-08
5.89662e-08
6.35488e-08
8.4898e-08
6.26373e-08
1.06837e-07
5.30547e-08
1.22589e-07
3.80167e-08
1.30942e-07
2.00818e-08
1.31469e-07
1.20707e-09
1.24337e-07
-1.71741e-08
1.10138e-07
-3.40501e-08
8.97652e-08
-4.87266e-08
6.43216e-08
-6.07464e-08
3.50425e-08
-6.98214e-08
3.24303e-09
-7.57742e-08
-2.97093e-08
-7.84971e-08
-6.24157e-08
-7.79235e-08
-9.34647e-08
-7.40178e-08
-1.21446e-07
-6.67796e-08
-1.4498e-07
-5.62633e-08
-1.62762e-07
-4.26138e-08
-1.73613e-07
-2.61126e-08
-1.7657e-07
-7.2442e-09
-1.71009e-07
1.32196e-08
-1.56805e-07
3.41091e-08
-1.34521e-07
5.37542e-08
-1.05581e-07
6.99087e-08
-7.26101e-08
7.95358e-08
-3.96925e-08
7.8909e-08
-1.27258e-08
6.34963e-08
2.86596e-08
9.30206e-09
1.44076e-08
2.87181e-08
3.24745e-08
5.21059e-08
4.01603e-08
7.5051e-08
3.96934e-08
9.44832e-08
3.36159e-08
1.08445e-07
2.40545e-08
1.15856e-07
1.26778e-08
1.16326e-07
7.42577e-10
1.1e-07
-1.08421e-08
9.74044e-08
-2.1448e-08
7.93328e-08
-3.06514e-08
5.67626e-08
-3.81759e-08
3.07888e-08
-4.38498e-08
2.57895e-09
-4.757e-08
-2.66518e-08
-4.92741e-08
-5.56597e-08
-4.89223e-08
-8.31911e-08
-4.64916e-08
-1.07995e-07
-4.19797e-08
-1.28849e-07
-3.54156e-08
-1.44592e-07
-2.68804e-08
-1.54176e-07
-1.65371e-08
-1.56746e-07
-4.67629e-09
-1.51754e-07
8.22659e-09
-1.39093e-07
2.14421e-08
-1.19248e-07
3.39188e-08
-9.35503e-08
4.41892e-08
-6.43013e-08
5.02917e-08
-3.51547e-08
4.97575e-08
-1.12913e-08
3.96378e-08
1.73803e-08
7.64751e-09
6.76689e-09
2.37575e-08
1.63675e-08
4.32919e-08
2.06279e-08
6.25275e-08
2.04629e-08
7.88385e-08
1.73045e-08
9.05497e-08
1.23387e-08
9.67551e-08
6.46939e-09
9.71408e-08
3.53432e-10
9.18411e-08
-5.54613e-09
8.13112e-08
-1.09185e-08
6.62248e-08
-1.55616e-08
4.74008e-08
-1.93473e-08
2.57511e-08
-2.21972e-08
2.2459e-09
-2.4065e-08
-2.21066e-08
-2.49233e-08
-4.62767e-08
-2.47538e-08
-6.92265e-08
-2.3544e-08
-8.99181e-08
-2.12902e-08
-1.07334e-07
-1.8003e-08
-1.20502e-07
-1.3716e-08
-1.28541e-07
-8.49888e-09
-1.30725e-07
-2.48684e-09
-1.26583e-07
4.08458e-09
-1.16006e-07
1.08554e-08
-9.93826e-08
1.73162e-08
-7.78408e-08
2.26483e-08
-5.33468e-08
2.5818e-08
-2.90356e-08
2.54477e-08
-9.26201e-09
1.98801e-08
8.115e-09
5.13401e-09
1.63281e-09
1.6636e-08
4.86887e-09
3.08986e-08
6.36557e-09
4.50294e-08
6.33944e-09
5.70066e-08
5.33682e-09
6.55737e-08
3.77673e-09
7.00863e-08
1.96109e-09
7.03487e-08
9.3876e-11
6.64883e-08
-1.6877e-09
5.88588e-08
-3.29458e-09
4.79636e-08
-4.67222e-09
3.44014e-08
-5.78905e-09
1.8828e-08
-6.62718e-09
1.93463e-09
-7.17611e-09
-1.55633e-08
-7.42974e-09
-3.29365e-08
-7.38328e-09
-4.94509e-08
-7.0327e-09
-6.43698e-08
-6.37625e-09
-7.69647e-08
-5.41456e-09
-8.65315e-08
-4.15274e-09
-9.24244e-08
-2.60559e-09
-9.41048e-08
-8.07572e-10
-9.11942e-08
1.17528e-09
-8.35632e-08
3.2388e-09
-7.1504e-08
5.23941e-09
-5.5781e-08
6.91688e-09
-3.78745e-08
7.93233e-09
-2.02268e-08
7.78162e-09
-6.18559e-09
5.85795e-09
1.92431e-09
1.63349e-09
6.50201e-09
1.2863e-08
1.91972e-08
2.45305e-08
2.83037e-08
3.02613e-08
3.03534e-08
2.86656e-08
2.53708e-08
2.0697e-08
1.49053e-08
8.27503e-09
1.09545e-09
-6.33713e-09
-1.37223e-08
-2.07579e-08
-2.71377e-08
-3.25547e-08
-3.6707e-08
-3.93122e-08
-4.01252e-08
-3.89553e-08
-3.56992e-08
-3.04616e-08
-2.35348e-08
-1.55893e-08
-7.7991e-09
-1.93419e-09
)
;

boundaryField
{
    floor
    {
        type            calculated;
        value           uniform 0;
    }
    ceiling
    {
        type            calculated;
        value           nonuniform List<scalar> 
30
(
1.32349e-23
0
0
0
0
0
0
0
0
0
-1.32349e-23
1.32349e-23
0
0
1.32349e-23
1.32349e-23
1.32349e-23
0
-1.32349e-23
0
0
0
0
0
0
0
0
0
0
1.32349e-23
)
;
    }
    fixedWalls
    {
        type            calculated;
        value           uniform 0;
    }
    frontAndBack
    {
        type            empty;
    }
}


// ************************************************************************* //
