/*--------------------------------*- C++ -*----------------------------------*\
| =========                 |                                                 |
| \\      /  F ield         | OpenFOAM: The Open Source CFD Toolbox           |
|  \\    /   O peration     | Version:  2412                                  |
|   \\  /    A nd           | Website:  www.openfoam.com                      |
|    \\/     M anipulation  |                                                 |
\*---------------------------------------------------------------------------*/
FoamFile
{
    version     2.0;
    format      ascii;
    arch        "LSB;label=32;scalar=64";
    class       volVectorField;
    location    "200";
    object      U;
}
// * * * * * * * * * * * * * * * * * * * * * * * * * * * * * * * * * * * * * //

dimensions      [0 1 -1 0 0 0 0];

internalField   nonuniform List<vector> 
900
(
(-4.46843e-06 3.69746e-06 0)
(-5.49867e-05 1.16661e-05 0)
(-0.000135847 1.48893e-05 0)
(-0.000221263 1.39799e-05 0)
(-0.000295428 1.08656e-05 0)
(-0.00034992 6.82246e-06 0)
(-0.000381164 2.66427e-06 0)
(-0.000388927 -1.17224e-06 0)
(-0.000374931 -4.47631e-06 0)
(-0.000341944 -7.17522e-06 0)
(-0.000293224 -9.28192e-06 0)
(-0.000232094 -1.08518e-05 0)
(-0.000161716 -1.19536e-05 0)
(-8.49913e-05 -1.26508e-05 0)
(-4.57712e-06 -1.29912e-05 0)
(7.70287e-05 -1.29966e-05 0)
(0.00015735 -1.2657e-05 0)
(0.000233786 -1.19375e-05 0)
(0.000303478 -1.07766e-05 0)
(0.000363255 -9.09167e-06 0)
(0.000409654 -6.80691e-06 0)
(0.000439038 -3.8745e-06 0)
(0.000447869 -2.9441e-07 0)
(0.00043318 3.84853e-06 0)
(0.000393248 8.31869e-06 0)
(0.000328591 1.26125e-05 0)
(0.00024346 1.58011e-05 0)
(0.000147457 1.6444e-05 0)
(5.81743e-05 1.24862e-05 0)
(4.06112e-06 3.33942e-06 0)
(-1.48969e-05 5.54838e-05 0)
(-0.000139017 0.000127826 0)
(-0.000318125 0.00015633 0)
(-0.000505272 0.000149484 0)
(-0.000668917 0.000120618 0)
(-0.000791159 8.03697e-05 0)
(-0.000863196 3.63427e-05 0)
(-0.00088323 -6.53166e-06 0)
(-0.000854007 -4.53158e-05 0)
(-0.000780991 -7.84709e-05 0)
(-0.000671054 -0.00010543 0)
(-0.000531536 -0.000126243 0)
(-0.000369672 -0.000141271 0)
(-0.000192318 -0.000150959 0)
(-5.91098e-06 -0.000155671 0)
(0.000183362 -0.000155565 0)
(0.000369328 -0.000150537 0)
(0.000545602 -0.00014025 0)
(0.000705313 -0.000124197 0)
(0.000841018 -0.000101814 0)
(0.000944814 -7.26864e-05 0)
(0.0010087 -3.68098e-05 0)
(0.00102525 5.1062e-06 0)
(0.000988657 5.12747e-05 0)
(0.000896273 9.83475e-05 0)
(0.000750574 0.000140742 0)
(0.000561809 0.000169987 0)
(0.000350289 0.00017444 0)
(0.000151031 0.000139958 0)
(1.55732e-05 5.86013e-05 0)
(-2.0301e-05 0.0001471 0)
(-0.000185838 0.000313606 0)
(-0.000417755 0.000375078 0)
(-0.000658935 0.000358355 0)
(-0.000870545 0.000291338 0)
(-0.00103011 0.000196869 0)
(-0.00112581 9.19781e-05 0)
(-0.00115441 -1.16608e-05 0)
(-0.00111858 -0.000106685 0)
(-0.00102478 -0.000188931 0)
(-0.000881559 -0.000256566 0)
(-0.000698325 -0.000309293 0)
(-0.000484598 -0.000347668 0)
(-0.000249599 -0.000372531 0)
(-2.12908e-06 -0.000384607 0)
(0.000249238 -0.000384199 0)
(0.000495917 -0.000371068 0)
(0.00072908 -0.000344475 0)
(0.000939366 -0.000303349 0)
(0.00111683 -0.000246588 0)
(0.0012511 -0.000173537 0)
(0.00133193 -8.45959e-05 0)
(0.0013501 1.80398e-05 0)
(0.0012988 0.000129567 0)
(0.00117551 0.000241597 0)
(0.000984341 0.000340996 0)
(0.000738956 0.000408905 0)
(0.00046477 0.000420467 0)
(0.000204841 0.000346033 0)
(2.19083e-05 0.0001586 0)
(-2.14937e-05 0.000254346 0)
(-0.000200269 0.000529764 0)
(-0.000450432 0.000628583 0)
(-0.000710901 0.000600703 0)
(-0.00094029 0.00049057 0)
(-0.00111452 0.000334344 0)
(-0.00122045 0.000159413 0)
(-0.00125395 -1.48918e-05 0)
(-0.00121723 -0.000175994 0)
(-0.00111673 -0.000316499 0)
(-0.000961368 -0.000432863 0)
(-0.000761224 -0.000524154 0)
(-0.000526704 -0.000590937 0)
(-0.000268081 -0.000634347 0)
(4.69772e-06 -0.000655403 0)
(0.000281843 -0.000654519 0)
(0.000553531 -0.000631317 0)
(0.000809703 -0.000584658 0)
(0.00103981 -0.000512926 0)
(0.00123281 -0.000414562 0)
(0.0013774 -0.000288849 0)
(0.00146262 -0.000136913 0)
(0.00147885 3.70848e-05 0)
(0.00141929 0.000224648 0)
(0.00128192 0.000411494 0)
(0.00107183 0.000575972 0)
(0.000804141 0.000687822 0)
(0.000506013 0.000707687 0)
(0.00022334 0.000588073 0)
(2.35989e-05 0.000277266 0)
(-2.00742e-05 0.00036191 0)
(-0.000191905 0.000748163 0)
(-0.000434245 0.000885624 0)
(-0.000687785 0.000847349 0)
(-0.000912227 0.000694509 0)
(-0.00108391 0.000476432 0)
(-0.00118962 0.000230726 0)
(-0.00122474 -1.56314e-05 0)
(-0.00119088 -0.000244696 0)
(-0.00109386 -0.000445624 0)
(-0.000942068 -0.000612937 0)
(-0.000745253 -0.000744845 0)
(-0.000513652 -0.000841728 0)
(-0.000257551 -0.000904859 0)
(1.29522e-05 -0.000935441 0)
(0.000287835 -0.000933943 0)
(0.000557021 -0.000899846 0)
(0.000810225 -0.000831673 0)
(0.00103678 -0.000727375 0)
(0.00122565 -0.000585093 0)
(0.00136574 -0.000404242 0)
(0.00144646 -0.000186899 0)
(0.00145875 6.05759e-05 0)
(0.00139643 0.000325782 0)
(0.00125815 0.000588407 0)
(0.00104943 0.000818288 0)
(0.000785419 0.000973873 0)
(0.000492797 0.00100135 0)
(0.000216394 0.000834929 0)
(2.23206e-05 0.000397688 0)
(-1.71869e-05 0.000459954 0)
(-0.000168822 0.000949677 0)
(-0.000385035 0.00112452 0)
(-0.000612781 0.00107791 0)
(-0.000815703 0.000886396 0)
(-0.000972123 0.000611393 0)
(-0.00106964 0.000299925 0)
(-0.00110358 -1.39444e-05 0)
(-0.00107485 -0.000307192 0)
(-0.000988305 -0.000565623 0)
(-0.000851246 -0.000781775 0)
(-0.00067236 -0.000952873 0)
(-0.000460959 -0.00107895 0)
(-0.000226563 -0.00116126 0)
(2.13562e-05 -0.00120108 0)
(0.000273319 -0.00119887 0)
(0.00051978 -0.00115399 0)
(0.000751018 -0.0010647 0)
(0.000957049 -0.000928642 0)
(0.0011277 -0.000743838 0)
(0.00125289 -0.000510004 0)
(0.00132317 -0.000230285 0)
(0.00133064 8.67353e-05 0)
(0.00127016 0.000424884 0)
(0.00114103 0.000758149 0)
(0.000948806 0.00104844 0)
(0.000707637 0.00124376 0)
(0.000442007 0.00127689 0)
(0.000192667 0.00106507 0)
(1.9357e-05 0.000508776 0)
(-1.35811e-05 0.000542504 0)
(-0.000137175 0.00112162 0)
(-0.000315604 0.00133014 0)
(-0.00050509 0.00127779 0)
(-0.000675249 0.00105401 0)
(-0.000807571 0.000730489 0)
(-0.000891189 0.000362321 0)
(-0.000921663 -1.02844e-05 0)
(-0.000899258 -0.000359837 0)
(-0.000827635 -0.000669114 0)
(-0.000712653 -0.00092878 0)
(-0.000561495 -0.00113503 0)
(-0.000382028 -0.00128742 0)
(-0.000182452 -0.00138707 0)
(2.89438e-05 -0.00143519 0)
(0.000243796 -0.00143222 0)
(0.000453669 -0.0013774 0)
(0.000649994 -0.0012688 0)
(0.00082406 -0.00110392 0)
(0.000967123 -0.000880807 0)
(0.00107067 -0.000599597 0)
(0.00112691 -0.000264543 0)
(0.00112947 0.00011369 0)
(0.00107447 0.000515527 0)
(0.00096183 0.000909936 0)
(0.000796764 0.00125193 0)
(0.000591681 0.00148048 0)
(0.000367587 0.00151689 0)
(0.000158924 0.00126393 0)
(1.55665e-05 0.000603589 0)
(-9.73304e-06 0.0006065 0)
(-0.000101491 0.00125677 0)
(-0.000235909 0.00149339 0)
(-0.000380113 0.00143788 0)
(-0.000510897 0.00118948 0)
(-0.000613733 0.000827908 0)
(-0.000679793 0.000414604 0)
(-0.000705127 -5.2907e-06 0)
(-0.000689434 -0.000400629 0)
(-0.000635118 -0.000751648 0)
(-0.000546411 -0.00104735 0)
(-0.000428741 -0.00128294 0)
(-0.000288224 -0.00145743 0)
(-0.000131393 -0.00157166 0)
(3.50171e-05 -0.00162674 0)
(0.000204136 -0.00162299 0)
(0.000369022 -0.00155958 0)
(0.000522652 -0.00143448 0)
(0.000657975 -0.00124519 0)
(0.00076804 -0.000989893 0)
(0.000846237 -0.000669239 0)
(0.000886682 -0.000288533 0)
(0.000884768 0.000139726 0)
(0.000837926 0.000593101 0)
(0.000746622 0.00103645 0)
(0.00061545 0.00141921 0)
(0.000454539 0.00167318 0)
(0.000280549 0.00171057 0)
(0.000120167 0.00142292 0)
(1.14487e-05 0.000678386 0)
(-5.95907e-06 0.000650899 0)
(-6.50737e-05 0.00135215 0)
(-0.000153515 0.00161004 0)
(-0.000249859 0.00155362 0)
(-0.00033856 0.00128867 0)
(-0.000409484 0.000900397 0)
(-0.000456147 0.000454731 0)
(-0.000475283 3.68085e-07 0)
(-0.000466139 -0.000428827 0)
(-0.000429892 -0.000811123 0)
(-0.000369109 -0.00113416 0)
(-0.00028737 -0.00139224 0)
(-0.00018891 -0.00158379 0)
(-7.84232e-05 -0.00170933 0)
(3.91104e-05 -0.00176974 0)
(0.00015853 -0.00176524 0)
(0.0002746 -0.00169492 0)
(0.00038206 -0.00155676 0)
(0.000475727 -0.00134834 0)
(0.000550626 -0.00106812 0)
(0.000602194 -0.000717292 0)
(0.000626557 -0.000302109 0)
(0.000620897 0.00016343 0)
(0.00058395 0.000654671 0)
(0.00051662 0.00113339 0)
(0.000422677 0.001545 0)
(0.000309646 0.00181612 0)
(0.000189352 0.00185257 0)
(8.00569e-05 0.0015381 0)
(7.32879e-06 0.000731743 0)
(-2.45828e-06 0.000676089 0)
(-3.02722e-05 0.00140789 0)
(-7.40094e-05 0.00167973 0)
(-0.000123386 0.0016242 0)
(-0.000170427 0.00135052 0)
(-0.00020945 0.000946886 0)
(-0.000236421 0.000481798 0)
(-0.000248889 6.09017e-06 0)
(-0.000245771 -0.000444637 0)
(-0.000227119 -0.000847299 0)
(-0.000193911 -0.00118852 0)
(-0.000147912 -0.0014618 0)
(-9.14874e-05 -0.00166504 0)
(-2.74672e-05 -0.00179835 0)
(4.09829e-05 -0.00186237 0)
(0.000110489 -0.00185717 0)
(0.000177593 -0.00178179 0)
(0.000238872 -0.00163429 0)
(0.000291061 -0.00141243 0)
(0.000331191 -0.00111503 0)
(0.00035674 -0.000743827 0)
(0.000365803 -0.000305873 0)
(0.000357275 0.000183715 0)
(0.000331093 0.000698764 0)
(0.000288491 0.00119907 0)
(0.000232294 0.00162755 0)
(0.000167277 0.00190777 0)
(0.000100303 0.00194181 0)
(4.12613e-05 0.00160906 0)
(3.46307e-06 0.000763846 0)
(6.50404e-07 0.000683466 0)
(1.30679e-06 0.00142643 0)
(-1.33758e-06 0.00170493 0)
(-7.20654e-06 0.00165167 0)
(-1.53702e-05 0.00137642 0)
(-2.43812e-05 0.000968068 0)
(-3.26013e-05 0.000495858 0)
(-3.84467e-05 1.13948e-05 0)
(-4.06127e-05 -0.000448944 0)
(-3.81854e-05 -0.000861338 0)
(-3.07115e-05 -0.00121173 0)
(-1.82782e-05 -0.00149304 0)
(-1.48716e-06 -0.00170263 0)
(1.86054e-05 -0.0018402 0)
(4.05938e-05 -0.0019061 0)
(6.28493e-05 -0.00190027 0)
(8.3654e-05 -0.00182172 0)
(0.000101379 -0.00166863 0)
(0.000114612 -0.00143903 0)
(0.000122294 -0.00113215 0)
(0.000123827 -0.000750238 0)
(0.000119126 -0.000300971 0)
(0.000108641 0.000199811 0)
(9.33547e-05 0.000725122 0)
(7.47158e-05 0.00123385 0)
(5.45484e-05 0.00166792 0)
(3.49161e-05 0.0019498 0)
(1.79147e-05 0.00198042 0)
(5.6463e-06 0.00163801 0)
(1.61306e-08 0.000775954 0)
(3.29893e-06 0.000675091 0)
(2.86537e-05 0.00141176 0)
(6.19541e-05 0.00169012 0)
(9.43788e-05 0.00164011 0)
(0.000120653 0.00136955 0)
(0.000138421 0.000965961 0)
(0.000147108 0.000497715 0)
(0.000147437 1.59512e-05 0)
(0.000140837 -0.000443072 0)
(0.000129009 -0.000855386 0)
(0.000113622 -0.0012066 0)
(9.60595e-05 -0.00148922 0)
(7.72987e-05 -0.00170014 0)
(5.7895e-05 -0.00183866 0)
(3.8061e-05 -0.00190484 0)
(1.77815e-05 -0.00189847 0)
(-3.04143e-06 -0.00181856 0)
(-2.43763e-05 -0.00166347 0)
(-4.59273e-05 -0.00143154 0)
(-6.70261e-05 -0.00112242 0)
(-8.65603e-05 -0.000738816 0)
(-0.000103007 -0.000288852 0)
(-0.000114576 0.000211302 0)
(-0.000119426 0.000734504 0)
(-0.000116011 0.00123972 0)
(-0.000103511 0.00166926 0)
(-8.23806e-05 0.0019463 0)
(-5.47991e-05 0.00197293 0)
(-2.56033e-05 0.00162902 0)
(-2.96688e-06 0.000770156 0)
(5.45466e-06 0.000653404 0)
(5.1227e-05 0.00136883 0)
(0.000114457 0.00164107 0)
(0.00017894 0.00159495 0)
(0.000234203 0.0013343 0)
(0.000274668 0.000943521 0)
(0.000297829 0.000488737 0)
(0.000303603 1.95694e-05 0)
(0.000293449 -0.000428617 0)
(0.000269674 -0.000832238 0)
(0.000234925 -0.0011769 0)
(0.000191803 -0.00145484 0)
(0.000142629 -0.00166261 0)
(8.93572e-05 -0.00179912 0)
(3.36164e-05 -0.00186416 0)
(-2.31782e-05 -0.00185735 0)
(-7.96767e-05 -0.00177775 0)
(-0.000134389 -0.00162391 0)
(-0.000185527 -0.00139453 0)
(-0.000230921 -0.00108965 0)
(-0.000268005 -0.000712385 0)
(-0.000293923 -0.000271085 0)
(-0.00030579 0.000218098 0)
(-0.000301108 0.000728451 0)
(-0.000278342 0.00121988 0)
(-0.000237618 0.00163625 0)
(-0.000181586 0.00190305 0)
(-0.000116055 0.00192549 0)
(-5.18107e-05 0.00158733 0)
(-5.46183e-06 0.000749091 0)
(7.11581e-06 0.000621018 0)
(6.88662e-05 0.00130302 0)
(0.000155685 0.00156418 0)
(0.00024558 0.00152233 0)
(0.00032395 0.0012757 0)
(0.000382626 0.00090422 0)
(0.000417526 0.000470627 0)
(0.000427846 2.2181e-05 0)
(0.000414989 -0.000407285 0)
(0.000381697 -0.000795016 0)
(0.000331354 -0.0011269 0)
(0.000267518 -0.0013951 0)
(0.000193589 -0.00159589 0)
(0.000112676 -0.00172787 0)
(2.75909e-05 -0.00179054 0)
(-5.90423e-05 -0.00178341 0)
(-0.00014463 -0.00170559 0)
(-0.000226453 -0.00155585 0)
(-0.000301484 -0.00133322 0)
(-0.000366319 -0.00103814 0)
(-0.000417213 -0.000674013 0)
(-0.000450266 -0.000249249 0)
(-0.000461768 0.000220345 0)
(-0.000448761 0.000708965 0)
(-0.000409802 0.00117817 0)
(-0.00034585 0.0015744 0)
(-0.000261355 0.0018267 0)
(-0.000165108 0.00184499 0)
(-7.26845e-05 0.00151869 0)
(-7.40831e-06 0.000715549 0)
(8.30571e-06 0.000580547 0)
(8.17156e-05 0.00121981 0)
(0.000185894 0.00146598 0)
(0.000294623 0.00142856 0)
(0.000390238 0.001199 0)
(0.00046261 0.000851711 0)
(0.000506448 0.00044524 0)
(0.000520342 2.38084e-05 0)
(0.000505577 -0.000380766 0)
(0.000465156 -0.000746908 0)
(0.000402981 -0.00106104 0)
(0.000323305 -0.0013154 0)
(0.000230346 -0.00150611 0)
(0.000128117 -0.00163149 0)
(2.0372e-05 -0.00169082 0)
(-8.92993e-05 -0.00168349 0)
(-0.000197294 -0.0016087 0)
(-0.000299886 -0.00146543 0)
(-0.000393072 -0.00125304 0)
(-0.00047249 -0.000972293 0)
(-0.000533506 -0.000626796 0)
(-0.000571453 -0.000224855 0)
(-0.000582058 0.000218328 0)
(-0.000562094 0.000678266 0)
(-0.000510256 0.00111874 0)
(-0.000428186 0.00148951 0)
(-0.000321744 0.00172418 0)
(-0.000202077 0.00173849 0)
(-8.83167e-05 0.00142902 0)
(-8.81863e-06 0.000672273 0)
(9.07008e-06 0.000534453 0)
(9.01503e-05 0.00112439 0)
(0.000205895 0.00135271 0)
(0.00032731 0.00131971 0)
(0.000434672 0.00110924 0)
(0.000516483 0.000789559 0)
(0.000566586 0.000414416 0)
(0.00058309 2.45357e-05 0)
(0.000567124 -0.000350633 0)
(0.000521804 -0.000690962 0)
(0.000451339 -0.0009836 0)
(0.000360441 -0.00122102 0)
(0.000253896 -0.00139926 0)
(0.000136375 -0.00151646 0)
(1.2351e-05 -0.00157171 0)
(-0.000113852 -0.00156433 0)
(-0.00023787 -0.00149357 0)
(-0.000355207 -0.00135865 0)
(-0.000461112 -0.00115922 0)
(-0.00055054 -0.000896302 0)
(-0.000618241 -0.000573618 0)
(-0.00065905 -0.000199222 0)
(-0.000668361 0.000212505 0)
(-0.000642837 0.000638699 0)
(-0.000581342 0.00104579 0)
(-0.000486054 0.0013874 0)
(-0.000363906 0.00160234 0)
(-0.000227718 0.00161296 0)
(-9.90819e-05 0.00132412 0)
(-9.78629e-06 0.000622022 0)
(9.4633e-06 0.000484953 0)
(9.47044e-05 0.0010214 0)
(0.000216887 0.00122999 0)
(0.000345527 0.00120128 0)
(0.000459742 0.00101106 0)
(0.000547196 0.000721053 0)
(0.000601154 0.000379879 0)
(0.000619376 2.44818e-05 0)
(0.000602814 -0.000318293 0)
(0.000554571 -0.000629948 0)
(0.000478986 -0.000898511 0)
(0.000381021 -0.0011168 0)
(0.000265809 -0.00128088 0)
(0.000138449 -0.00138876 0)
(3.91829e-06 -0.00143943 0)
(-0.000132921 -0.00143213 0)
(-0.000267175 -0.00136619 0)
(-0.000393806 -0.00124102 0)
(-0.000507548 -0.00105654 0)
(-0.000602903 -0.00081398 0)
(-0.000674256 -0.000517066 0)
(-0.000716177 -0.000173483 0)
(-0.000723923 0.000203377 0)
(-0.00069417 0.000592497 0)
(-0.000625971 0.000963238 0)
(-0.000521934 0.0012734 0)
(-0.000389753 0.0014674 0)
(-0.000243229 0.00147477 0)
(-0.000105484 0.00120917 0)
(-1.03491e-05 0.000567291 0)
(9.53614e-06 0.00043395 0)
(9.59959e-05 0.000914891 0)
(0.000220316 0.0011027 0)
(0.000351567 0.00107805 0)
(0.000468486 0.000908508 0)
(0.000558352 0.000649086 0)
(0.000614107 0.000343164 0)
(0.00063327 2.37764e-05 0)
(0.000616607 -0.000284953 0)
(0.000567113 -0.000566272 0)
(0.000489113 -0.000809194 0)
(0.000387643 -0.00100699 0)
(0.000268001 -0.00115584 0)
(0.000135515 -0.00125369 0)
(-4.54054e-06 -0.00129945 0)
(-0.000146942 -0.00129237 0)
(-0.000286448 -0.00123183 0)
(-0.000417688 -0.00111741 0)
(-0.000535088 -0.000949233 0)
(-0.000632905 -0.000728679 0)
(-0.000705366 -0.0004594 0)
(-0.00074697 -0.000148603 0)
(-0.00075299 0.000191434 0)
(-0.000720211 0.000541675 0)
(-0.000647903 0.000874547 0)
(-0.000539014 0.00115219 0)
(-0.000401664 0.00132481 0)
(-0.000250123 0.00132945 0)
(-0.000108178 0.00108869 0)
(-1.05362e-05 0.000510152 0)
(9.34918e-06 0.000382987 0)
(9.4684e-05 0.000808168 0)
(0.000217724 0.000974839 0)
(0.000347906 0.000953967 0)
(0.000464184 0.000804918 0)
(0.000553847 0.000576059 0)
(0.000609727 0.000305559 0)
(0.000629192 2.25527e-05 0)
(0.000612819 -0.000251588 0)
(0.000563429 -0.000501917 0)
(0.000485214 -0.000718497 0)
(0.000383143 -0.000895139 0)
(0.000262533 -0.00102821 0)
(0.000128786 -0.00111568 0)
(-1.26966e-05 -0.00115641 0)
(-0.000156496 -0.00114966 0)
(-0.000297171 -0.00109489 0)
(-0.000429187 -0.000991832 0)
(-0.00054684 -0.000840749 0)
(-0.000644322 -0.000643105 0)
(-0.000715864 -0.000402394 0)
(-0.000756043 -0.000125252 0)
(-0.000760271 0.000177235 0)
(-0.000725524 0.000488062 0)
(-0.000651308 0.000782751 0)
(-0.000540807 0.0010278 0)
(-0.000402246 0.0011793 0)
(-0.000250026 0.00118171 0)
(-0.000107914 0.000966632 0)
(-1.04545e-05 0.000452438 0)
(8.98005e-06 0.00033325 0)
(9.1442e-05 0.000703795 0)
(0.000210641 0.000849544 0)
(0.000336995 0.000832095 0)
(0.0004501 0.000702897 0)
(0.000537565 0.000503859 0)
(0.000592292 0.000268099 0)
(0.000611563 2.09452e-05 0)
(0.000595768 -0.000218942 0)
(0.000547512 -0.000438428 0)
(0.000470772 -0.000628672 0)
(0.00037034 -0.000784062 0)
(0.000251446 -0.00090124 0)
(0.000119452 -0.000978254 0)
(-2.02442e-05 -0.00101396 0)
(-0.000162182 -0.00100765 0)
(-0.00030086 -0.000958881 0)
(-0.000430697 -0.00086747 0)
(-0.000546001 -0.000733811 0)
(-0.000641026 -0.000559367 0)
(-0.000710134 -0.000347404 0)
(-0.000748093 -0.000103918 0)
(-0.00075055 0.000161238 0)
(-0.000714736 0.000433095 0)
(-0.000640392 0.000690223 0)
(-0.000530809 0.00090343 0)
(-0.000394141 0.00103456 0)
(-0.000244568 0.0010352 0)
(-0.000105363 0.000845936 0)
(-1.0171e-05 0.000395547 0)
(8.50457e-06 0.000285594 0)
(8.69113e-05 0.000603607 0)
(0.000200494 0.00072908 0)
(0.000321105 0.000714687 0)
(0.000429268 0.000604369 0)
(0.00051313 0.000433897 0)
(0.000565787 0.000231571 0)
(0.000584497 1.90699e-05 0)
(0.000569473 -0.000187558 0)
(0.000523077 -0.000376945 0)
(0.000449037 -0.000541381 0)
(0.000351891 -0.000675867 0)
(0.00023667 -0.000777357 0)
(0.00010862 -0.000844049 0)
(-2.69443e-05 -0.000874857 0)
(-0.00016463 -0.000869107 0)
(-0.00029899 -0.000826416 0)
(-0.000424507 -0.000746703 0)
(-0.000535596 -0.000630421 0)
(-0.000626673 -0.000478977 0)
(-0.000692313 -0.000295346 0)
(-0.000727552 -8.48447e-05 0)
(-0.000728342 0.000143918 0)
(-0.000692211 0.000377968 0)
(-0.000619096 0.000598851 0)
(-0.00051229 0.000781539 0)
(-0.000379817 0.000893337 0)
(-0.000235342 0.000892736 0)
(-0.000101202 0.000728801 0)
(-9.73118e-06 0.00034046 0)
(7.98055e-06 0.000240558 0)
(8.16494e-05 0.000508782 0)
(0.000188534 0.000614925 0)
(0.00030221 0.000603241 0)
(0.000404322 0.000510637 0)
(0.000483675 0.000367135 0)
(0.000533654 0.000196517 0)
(0.000551546 1.70263e-05 0)
(0.000537419 -0.00015778 0)
(0.000493359 -0.000318237 0)
(0.000422819 -0.000457755 0)
(0.000330065 -0.000572 0)
(0.000219865 -0.000658268 0)
(9.72708e-05 -0.000714937 0)
(-3.25528e-05 -0.000741024 0)
(-0.000164349 -0.00073592 0)
(-0.000292809 -0.000699303 0)
(-0.000412565 -0.000631149 0)
(-0.000518209 -0.00053192 0)
(-0.000604387 -0.000402917 0)
(-0.000665945 -0.000246771 0)
(-0.000698236 -6.81007e-05 0)
(-0.000697552 0.000125712 0)
(-0.000661714 0.000323634 0)
(-0.000590815 0.000510075 0)
(-0.000488124 0.000663941 0)
(-0.000361404 0.000757603 0)
(-0.000223682 0.000756233 0)
(-9.60871e-05 0.000616808 0)
(-9.22553e-06 0.000287887 0)
(7.45094e-06 0.000198411 0)
(7.6094e-05 0.000419964 0)
(0.00017575 0.000507915 0)
(0.00028186 0.00049863 0)
(0.000377308 0.000422482 0)
(0.00045164 0.000304168 0)
(0.000498589 0.000163292 0)
(0.000515503 1.48978e-05 0)
(0.000502325 -0.000129807 0)
(0.000460885 -0.000262785 0)
(0.000394338 -0.000378528 0)
(0.000306667 -0.000473395 0)
(0.000202354 -0.000545066 0)
(8.61971e-05 -0.000592126 0)
(-3.68446e-05 -0.000613721 0)
(-0.000161703 -0.000609329 0)
(-0.000283262 -0.000578685 0)
(-0.000396359 -0.000521799 0)
(-0.00049582 -0.000439102 0)
(-0.000576563 -0.000331733 0)
(-0.000633749 -0.00020195 0)
(-0.000663076 -5.36537e-05 0)
(-0.000661175 0.000106977 0)
(-0.000626129 0.000270782 0)
(-0.00055816 0.000424865 0)
(-0.00046054 0.000551773 0)
(-0.000340604 0.000628656 0)
(-0.00021061 0.000626819 0)
(-9.04358e-05 0.000510801 0)
(-8.69279e-06 0.000238178 0)
(6.94587e-06 0.000159222 0)
(7.052e-05 0.000337409 0)
(0.000162756 0.000408423 0)
(0.000261029 0.000401272 0)
(0.000349525 0.000340306 0)
(0.000418575 0.000245334 0)
(0.000462296 0.000132119 0)
(0.00047812 1.2769e-05 0)
(0.00046591 -0.000103707 0)
(0.000427257 -0.000210821 0)
(0.000365015 -0.000304103 0)
(0.000282871 -0.000380602 0)
(0.000185018 -0.000438418 0)
(7.597e-05 -0.000476368 0)
(-3.95749e-05 -0.000493739 0)
(-0.000156788 -0.000490101 0)
(-0.000270792 -0.000465247 0)
(-0.000376671 -0.000419199 0)
(-0.000469525 -0.000352332 0)
(-0.000544574 -0.000265595 0)
(-0.00059732 -0.000160844 0)
(-0.00062381 -4.12586e-05 0)
(-0.000620991 8.81636e-05 0)
(-0.000587182 0.000220043 0)
(-0.000522733 0.000343973 0)
(-0.000430849 0.000445839 0)
(-0.000318423 0.000507351 0)
(-0.000196835 0.000505311 0)
(-8.45581e-05 0.000411329 0)
(-8.1689e-06 0.000191523 0)
(6.46762e-06 0.000122963 0)
(6.49661e-05 0.000261178 0)
(0.000149669 0.000316603 0)
(0.000239937 0.000311368 0)
(0.000321295 0.000264314 0)
(0.000384869 0.000190814 0)
(0.000425218 0.000103129 0)
(0.000439876 1.069e-05 0)
(0.000428635 -7.95257e-05 0)
(0.000392903 -0.000162498 0)
(0.000335244 -0.000234758 0)
(0.000259037 -0.000294017 0)
(0.000168176 -0.000338806 0)
(6.68645e-05 -0.000368202 0)
(-4.05039e-05 -0.000381643 0)
(-0.000149395 -0.000378792 0)
(-0.000255225 -0.000359486 0)
(-0.000353375 -0.000323744 0)
(-0.000439259 -0.000271863 0)
(-0.000508433 -0.000204587 0)
(-0.000556749 -0.000123362 0)
(-0.000580589 -3.06523e-05 0)
(-0.00057719 6.96816e-05 0)
(-0.000545096 0.000171921 0)
(-0.000484783 0.00026796 0)
(-0.000399243 0.00034679 0)
(-0.000294922 0.0003942 0)
(-0.00018237 0.000392166 0)
(-7.84792e-05 0.000318699 0)
(-7.66075e-06 0.000147998 0)
(5.97753e-06 8.96407e-05 0)
(5.9151e-05 0.000191396 0)
(0.000135938 0.000232663 0)
(0.000217785 0.000229153 0)
(0.000291624 0.000194736 0)
(0.000349394 0.000140814 0)
(0.000386126 7.648e-05 0)
(0.000399509 8.71651e-06 0)
(0.000389289 -5.73434e-05 0)
(0.000356717 -0.000118046 0)
(0.000304095 -0.000170874 0)
(0.000234483 -0.000214165 0)
(0.000151437 -0.000246867 0)
(5.88113e-05 -0.000268323 0)
(-3.93587e-05 -0.000278134 0)
(-0.000138901 -0.000276056 0)
(-0.000235595 -0.000261963 0)
(-0.00032519 -0.000235861 0)
(-0.000403478 -0.000197955 0)
(-0.000466396 -0.000148781 0)
(-0.000510165 -8.9376e-05 0)
(-0.000531497 -2.15117e-05 0)
(-0.000527904 5.20145e-05 0)
(-0.000498131 0.000127003 0)
(-0.000442703 0.000197473 0)
(-0.000364401 0.000255361 0)
(-0.000269111 0.000289957 0)
(-0.000166479 0.000288013 0)
(-7.18052e-05 0.000233349 0)
(-7.11069e-06 0.00010773 0)
(5.3639e-06 5.9556e-05 0)
(5.23203e-05 0.000128662 0)
(0.000120107 0.000157251 0)
(0.00019246 0.000155242 0)
(0.000257838 0.000132117 0)
(0.000309028 9.57747e-05 0)
(0.000341601 5.24699e-05 0)
(0.000353483 6.95911e-06 0)
(0.000344424 -3.72938e-05 0)
(0.000315531 -7.78694e-05 0)
(0.000268855 -0.00011312 0)
(0.000207109 -0.000141965 0)
(0.000133442 -0.000163727 0)
(5.12741e-05 -0.000177998 0)
(-3.58099e-05 -0.000184529 0)
(-0.000124102 -0.000183164 0)
(-0.000209849 -0.000173815 0)
(-0.000289281 -0.000156477 0)
(-0.000358665 -0.000131271 0)
(-0.000414398 -9.85287e-05 0)
(-0.000453116 -5.89018e-05 0)
(-0.000471891 -1.35288e-05 0)
(-0.000468532 3.57537e-05 0)
(-0.000441947 8.61361e-05 0)
(-0.00039255 0.000133588 0)
(-0.000322925 0.000172638 0)
(-0.000238351 0.000195861 0)
(-0.000147396 0.000194108 0)
(-6.36413e-05 0.000156362 0)
(-6.39689e-06 7.12668e-05 0)
(4.41613e-06 3.35246e-05 0)
(4.30848e-05 7.43741e-05 0)
(9.95573e-05 9.17946e-05 0)
(0.000160128 9.09291e-05 0)
(0.000214997 7.75438e-05 0)
(0.000257958 5.64843e-05 0)
(0.000285256 3.15053e-05 0)
(0.000295185 5.38938e-06 0)
(0.000287574 -1.98776e-05 0)
(0.000263395 -4.29456e-05 0)
(0.000224406 -6.2921e-05 0)
(0.000172889 -7.92282e-05 0)
(0.000111474 -9.15129e-05 0)
(4.30049e-05 -9.95651e-05 0)
(-2.95427e-05 -0.000103259 0)
(-0.000103096 -0.000102513 0)
(-0.000174549 -9.72754e-05 0)
(-0.000240779 -8.75347e-05 0)
(-0.000298685 -7.33447e-05 0)
(-0.00034526 -5.48642e-05 0)
(-0.000377681 -3.24187e-05 0)
(-0.000393476 -6.61231e-06 0)
(-0.000390781 2.15356e-05 0)
(-0.000368629 5.04582e-05 0)
(-0.000327297 7.79021e-05 0)
(-0.000268941 0.000100521 0)
(-0.000198044 0.000113955 0)
(-0.000121989 0.000112584 0)
(-5.23129e-05 8.97265e-05 0)
(-5.24044e-06 3.97102e-05 0)
(2.67379e-06 1.38856e-05 0)
(2.94895e-05 3.21402e-05 0)
(7.04441e-05 4.01618e-05 0)
(0.00011488 3.99585e-05 0)
(0.000155208 3.43355e-05 0)
(0.000186698 2.55536e-05 0)
(0.000206603 1.52756e-05 0)
(0.000213773 4.65891e-06 0)
(0.000208186 -5.5064e-06 0)
(0.000190627 -1.47046e-05 0)
(0.000162428 -2.26138e-05 0)
(0.000125276 -2.90391e-05 0)
(8.10738e-05 -3.3866e-05 0)
(3.18551e-05 -3.70276e-05 0)
(-2.02652e-05 -3.84853e-05 0)
(-7.31107e-05 -3.82111e-05 0)
(-0.000124484 -3.61823e-05 0)
(-0.000172175 -3.23886e-05 0)
(-0.000213977 -2.68388e-05 0)
(-0.000247722 -1.95733e-05 0)
(-0.000271355 -1.06887e-05 0)
(-0.000283063 -3.93165e-07 0)
(-0.000281422 1.09283e-05 0)
(-0.000265571 2.26773e-05 0)
(-0.000235671 3.40118e-05 0)
(-0.000193208 4.34502e-05 0)
(-0.000141361 4.91161e-05 0)
(-8.58561e-05 4.83509e-05 0)
(-3.56147e-05 3.79651e-05 0)
(-3.1593e-06 1.58932e-05 0)
(3.01401e-07 2.14631e-06 0)
(1.05452e-05 4.78828e-06 0)
(2.85871e-05 5.76572e-06 0)
(4.8515e-05 5.70029e-06 0)
(6.65383e-05 5.06559e-06 0)
(8.04764e-05 4.15594e-06 0)
(8.91731e-05 3.15948e-06 0)
(9.22301e-05 2.17995e-06 0)
(8.97413e-05 1.279e-06 0)
(8.21227e-05 4.92118e-07 0)
(6.99942e-05 -1.64393e-07 0)
(5.41023e-05 -6.86306e-07 0)
(3.52664e-05 -1.07367e-06 0)
(1.43429e-05 -1.32661e-06 0)
(-7.78845e-06 -1.44563e-06 0)
(-3.02298e-05 -1.4292e-06 0)
(-5.2078e-05 -1.27444e-06 0)
(-7.242e-05 -9.80002e-07 0)
(-9.03328e-05 -5.4295e-07 0)
(-0.000104897 4.18642e-08 0)
(-0.000115223 7.78358e-07 0)
(-0.000120507 1.66007e-06 0)
(-0.000120083 2.6577e-06 0)
(-0.000113447 3.72943e-06 0)
(-0.000100573 4.8348e-06 0)
(-8.20031e-05 5.81736e-06 0)
(-5.90613e-05 6.4816e-06 0)
(-3.44143e-05 6.4534e-06 0)
(-1.25325e-05 5.23133e-06 0)
(-3.1514e-07 2.15167e-06 0)
)
;

boundaryField
{
    floor
    {
        type            noSlip;
    }
    ceiling
    {
        type            noSlip;
    }
    fixedWalls
    {
        type            noSlip;
    }
    frontAndBack
    {
        type            empty;
    }
}


// ************************************************************************* //
