/*--------------------------------*- C++ -*----------------------------------*\
| =========                 |                                                 |
| \\      /  F ield         | OpenFOAM: The Open Source CFD Toolbox           |
|  \\    /   O peration     | Version:  2412                                  |
|   \\  /    A nd           | Website:  www.openfoam.com                      |
|    \\/     M anipulation  |                                                 |
\*---------------------------------------------------------------------------*/
FoamFile
{
    version     2.0;
    format      ascii;
    arch        "LSB;label=32;scalar=64";
    class       volScalarField;
    location    "900";
    object      p;
}
// * * * * * * * * * * * * * * * * * * * * * * * * * * * * * * * * * * * * * //

dimensions      [0 2 -2 0 0 0 0];

internalField   nonuniform List<scalar> 
900
(
0
-2.77775e-06
-3.29422e-06
-1.75856e-07
6.52633e-06
1.63141e-05
2.8349e-05
4.16438e-05
5.51516e-05
6.78353e-05
7.87283e-05
8.69819e-05
9.19052e-05
9.29959e-05
8.9963e-05
8.27429e-05
7.15054e-05
5.66483e-05
3.87838e-05
1.87147e-05
-2.59831e-06
-2.40775e-05
-4.45819e-05
-6.29578e-05
-7.81055e-05
-8.9074e-05
-9.51938e-05
-9.63139e-05
-9.31241e-05
-8.75807e-05
-0.00126271
-0.00126613
-0.00126666
-0.00126388
-0.00125813
-0.00124985
-0.00123975
-0.00122866
-0.00121744
-0.00120697
-0.00119807
-0.00119144
-0.00118769
-0.00118722
-0.00119029
-0.00119695
-0.00120703
-0.0012202
-0.00123591
-0.00125349
-0.00127209
-0.00129081
-0.00130868
-0.00132473
-0.00133805
-0.00134786
-0.00135361
-0.00135512
-0.00135253
-0.00134671
-0.00379305
-0.00379735
-0.0037984
-0.00379622
-0.00379141
-0.00378444
-0.00377593
-0.00376661
-0.00375721
-0.00374849
-0.00374115
-0.00373579
-0.00373293
-0.00373292
-0.00373597
-0.00374211
-0.00375121
-0.00376295
-0.00377688
-0.0037924
-0.00380877
-0.00382521
-0.00384089
-0.00385497
-0.00386667
-0.00387531
-0.00388034
-0.00388149
-0.00387837
-0.00387111
-0.00758789
-0.00759302
-0.00759473
-0.00759324
-0.00758932
-0.00758345
-0.00757624
-0.00756832
-0.00756036
-0.007553
-0.00754687
-0.00754249
-0.00754029
-0.00754058
-0.00754355
-0.00754922
-0.00755746
-0.007568
-0.00758044
-0.00759423
-0.00760875
-0.0076233
-0.00763715
-0.00764957
-0.00765984
-0.00766733
-0.00767147
-0.00767188
-0.00766782
-0.00765904
-0.0126419
-0.0126475
-0.0126497
-0.0126488
-0.0126457
-0.0126408
-0.0126346
-0.0126279
-0.0126212
-0.012615
-0.0126098
-0.0126062
-0.0126045
-0.0126051
-0.0126079
-0.0126131
-0.0126206
-0.01263
-0.0126411
-0.0126534
-0.0126662
-0.0126791
-0.0126913
-0.0127022
-0.0127112
-0.0127176
-0.0127208
-0.0127205
-0.0127156
-0.0127058
-0.0189473
-0.018953
-0.0189555
-0.0189551
-0.0189527
-0.0189486
-0.0189434
-0.0189377
-0.018932
-0.0189268
-0.0189224
-0.0189195
-0.0189182
-0.0189189
-0.0189216
-0.0189263
-0.018933
-0.0189415
-0.0189513
-0.0189622
-0.0189736
-0.0189849
-0.0189957
-0.0190052
-0.0190129
-0.0190183
-0.0190207
-0.0190197
-0.0190143
-0.019004
-0.0264947
-0.0265002
-0.0265028
-0.0265028
-0.0265009
-0.0264975
-0.0264932
-0.0264883
-0.0264835
-0.0264791
-0.0264755
-0.0264731
-0.0264721
-0.0264728
-0.0264753
-0.0264796
-0.0264856
-0.0264931
-0.0265018
-0.0265114
-0.0265214
-0.0265313
-0.0265407
-0.026549
-0.0265556
-0.02656
-0.0265617
-0.0265603
-0.0265547
-0.0265444
-0.0352727
-0.0352778
-0.0352803
-0.0352805
-0.035279
-0.0352763
-0.0352727
-0.0352686
-0.0352646
-0.0352609
-0.0352579
-0.0352559
-0.0352553
-0.035256
-0.0352583
-0.0352621
-0.0352674
-0.035274
-0.0352816
-0.0352899
-0.0352986
-0.0353072
-0.0353153
-0.0353224
-0.035328
-0.0353316
-0.0353327
-0.035331
-0.0353255
-0.0353157
-0.0452684
-0.045273
-0.0452753
-0.0452756
-0.0452745
-0.0452723
-0.0452693
-0.045266
-0.0452626
-0.0452596
-0.0452572
-0.0452556
-0.0452551
-0.0452559
-0.0452579
-0.0452612
-0.0452658
-0.0452715
-0.045278
-0.0452852
-0.0452926
-0.0452999
-0.0453068
-0.0453128
-0.0453174
-0.0453203
-0.045321
-0.0453192
-0.045314
-0.045305
-0.0564677
-0.0564716
-0.0564737
-0.056474
-0.0564732
-0.0564714
-0.056469
-0.0564664
-0.0564637
-0.0564612
-0.0564593
-0.0564581
-0.0564578
-0.0564585
-0.0564603
-0.0564631
-0.056467
-0.0564717
-0.0564772
-0.0564832
-0.0564894
-0.0564955
-0.0565012
-0.0565061
-0.0565099
-0.0565122
-0.0565126
-0.0565108
-0.0565061
-0.0564982
-0.0688552
-0.0688584
-0.0688601
-0.0688604
-0.0688598
-0.0688585
-0.0688566
-0.0688546
-0.0688525
-0.0688506
-0.0688491
-0.0688482
-0.0688481
-0.0688487
-0.0688502
-0.0688525
-0.0688557
-0.0688595
-0.068864
-0.0688688
-0.0688738
-0.0688787
-0.0688832
-0.0688871
-0.0688901
-0.0688918
-0.068892
-0.0688904
-0.0688864
-0.0688798
-0.0824144
-0.0824168
-0.0824181
-0.0824184
-0.082418
-0.082417
-0.0824157
-0.0824142
-0.0824127
-0.0824113
-0.0824103
-0.0824097
-0.0824096
-0.0824102
-0.0824113
-0.0824132
-0.0824156
-0.0824186
-0.082422
-0.0824257
-0.0824294
-0.0824331
-0.0824366
-0.0824395
-0.0824417
-0.082443
-0.082443
-0.0824417
-0.0824386
-0.0824334
-0.097128
-0.0971297
-0.0971306
-0.0971308
-0.0971305
-0.0971299
-0.097129
-0.0971281
-0.0971271
-0.0971262
-0.0971256
-0.0971252
-0.0971253
-0.0971257
-0.0971266
-0.0971279
-0.0971296
-0.0971317
-0.097134
-0.0971366
-0.0971392
-0.0971417
-0.0971441
-0.0971461
-0.0971476
-0.0971484
-0.0971484
-0.0971474
-0.0971451
-0.0971415
-0.112978
-0.112979
-0.112979
-0.11298
-0.112979
-0.112979
-0.112979
-0.112978
-0.112978
-0.112977
-0.112977
-0.112977
-0.112977
-0.112977
-0.112978
-0.112979
-0.11298
-0.112981
-0.112982
-0.112984
-0.112985
-0.112987
-0.112988
-0.112989
-0.11299
-0.11299
-0.11299
-0.11299
-0.112988
-0.112986
-0.129946
-0.129946
-0.129946
-0.129946
-0.129946
-0.129946
-0.129946
-0.129946
-0.129946
-0.129946
-0.129947
-0.129947
-0.129947
-0.129947
-0.129947
-0.129947
-0.129948
-0.129948
-0.129948
-0.129949
-0.129949
-0.129949
-0.129949
-0.12995
-0.12995
-0.12995
-0.12995
-0.12995
-0.129949
-0.129949
-0.148013
-0.148013
-0.148012
-0.148012
-0.148012
-0.148013
-0.148013
-0.148014
-0.148014
-0.148015
-0.148015
-0.148015
-0.148016
-0.148016
-0.148015
-0.148015
-0.148015
-0.148014
-0.148013
-0.148013
-0.148012
-0.148011
-0.14801
-0.14801
-0.148009
-0.148009
-0.148009
-0.148009
-0.14801
-0.148011
-0.167161
-0.167159
-0.167159
-0.167158
-0.167159
-0.167159
-0.16716
-0.167161
-0.167162
-0.167163
-0.167164
-0.167164
-0.167165
-0.167165
-0.167164
-0.167163
-0.167162
-0.167161
-0.167159
-0.167157
-0.167155
-0.167153
-0.167151
-0.16715
-0.167149
-0.167148
-0.167148
-0.167149
-0.16715
-0.167153
-0.18737
-0.187368
-0.187367
-0.187366
-0.187367
-0.187368
-0.187369
-0.18737
-0.187372
-0.187373
-0.187374
-0.187375
-0.187375
-0.187375
-0.187374
-0.187373
-0.187371
-0.187369
-0.187366
-0.187363
-0.18736
-0.187357
-0.187354
-0.187352
-0.18735
-0.187349
-0.187349
-0.18735
-0.187352
-0.187357
-0.208622
-0.208619
-0.208618
-0.208618
-0.208618
-0.208619
-0.208621
-0.208623
-0.208625
-0.208627
-0.208628
-0.208629
-0.208629
-0.208629
-0.208628
-0.208626
-0.208623
-0.20862
-0.208617
-0.208613
-0.208608
-0.208604
-0.208601
-0.208597
-0.208595
-0.208593
-0.208593
-0.208595
-0.208598
-0.208604
-0.2309
-0.230896
-0.230895
-0.230894
-0.230895
-0.230896
-0.230899
-0.230901
-0.230903
-0.230905
-0.230907
-0.230908
-0.230909
-0.230908
-0.230907
-0.230904
-0.230901
-0.230897
-0.230893
-0.230888
-0.230882
-0.230877
-0.230872
-0.230868
-0.230865
-0.230863
-0.230863
-0.230865
-0.230869
-0.230875
-0.254185
-0.254181
-0.254179
-0.254179
-0.25418
-0.254182
-0.254184
-0.254187
-0.25419
-0.254192
-0.254194
-0.254196
-0.254196
-0.254196
-0.254194
-0.254191
-0.254187
-0.254182
-0.254177
-0.254171
-0.254165
-0.254158
-0.254153
-0.254147
-0.254144
-0.254141
-0.254141
-0.254143
-0.254147
-0.254155
-0.278463
-0.278458
-0.278456
-0.278456
-0.278457
-0.278459
-0.278462
-0.278465
-0.278469
-0.278472
-0.278474
-0.278476
-0.278476
-0.278475
-0.278473
-0.27847
-0.278466
-0.27846
-0.278453
-0.278446
-0.278439
-0.278432
-0.278425
-0.278419
-0.278414
-0.278411
-0.278411
-0.278412
-0.278418
-0.278427
-0.303716
-0.303711
-0.303709
-0.303709
-0.30371
-0.303713
-0.303716
-0.30372
-0.303724
-0.303728
-0.30373
-0.303732
-0.303733
-0.303732
-0.30373
-0.303726
-0.303721
-0.303715
-0.303707
-0.303699
-0.303691
-0.303682
-0.303674
-0.303667
-0.303662
-0.303658
-0.303657
-0.303659
-0.303664
-0.303674
-0.329932
-0.329927
-0.329925
-0.329925
-0.329927
-0.32993
-0.329934
-0.329938
-0.329943
-0.329947
-0.32995
-0.329952
-0.329953
-0.329952
-0.32995
-0.329946
-0.32994
-0.329933
-0.329924
-0.329915
-0.329905
-0.329896
-0.329887
-0.329879
-0.329872
-0.329868
-0.329866
-0.329868
-0.329873
-0.329883
-0.357098
-0.357093
-0.35709
-0.357091
-0.357093
-0.357097
-0.357101
-0.357107
-0.357112
-0.357117
-0.35712
-0.357123
-0.357124
-0.357123
-0.35712
-0.357116
-0.357109
-0.357101
-0.357092
-0.357082
-0.357071
-0.35706
-0.35705
-0.35704
-0.357033
-0.357028
-0.357026
-0.357027
-0.357032
-0.357042
-0.385202
-0.385197
-0.385195
-0.385196
-0.385198
-0.385203
-0.385208
-0.385215
-0.385221
-0.385226
-0.385231
-0.385234
-0.385235
-0.385234
-0.385231
-0.385226
-0.385219
-0.38521
-0.3852
-0.385188
-0.385176
-0.385164
-0.385152
-0.385142
-0.385133
-0.385127
-0.385124
-0.385124
-0.385129
-0.385138
-0.414235
-0.41423
-0.414229
-0.41423
-0.414234
-0.414239
-0.414245
-0.414252
-0.41426
-0.414266
-0.414271
-0.414275
-0.414277
-0.414276
-0.414273
-0.414268
-0.41426
-0.41425
-0.414238
-0.414225
-0.414212
-0.414198
-0.414185
-0.414173
-0.414163
-0.414156
-0.414152
-0.414152
-0.414156
-0.414164
-0.444189
-0.444185
-0.444184
-0.444186
-0.444191
-0.444197
-0.444205
-0.444213
-0.444221
-0.444229
-0.444235
-0.44424
-0.444242
-0.444242
-0.444239
-0.444233
-0.444224
-0.444213
-0.4442
-0.444185
-0.44417
-0.444155
-0.44414
-0.444126
-0.444115
-0.444107
-0.444102
-0.444101
-0.444104
-0.444111
-0.47506
-0.475056
-0.475056
-0.475058
-0.475063
-0.475071
-0.47508
-0.47509
-0.4751
-0.475109
-0.475117
-0.475123
-0.475126
-0.475126
-0.475122
-0.475116
-0.475106
-0.475094
-0.475079
-0.475063
-0.475046
-0.475028
-0.475011
-0.474996
-0.474983
-0.474974
-0.474969
-0.474967
-0.47497
-0.474975
-0.506844
-0.506841
-0.50684
-0.506843
-0.506849
-0.506858
-0.506869
-0.506881
-0.506893
-0.506904
-0.506914
-0.506921
-0.506925
-0.506925
-0.506922
-0.506915
-0.506905
-0.506891
-0.506874
-0.506855
-0.506835
-0.506815
-0.506796
-0.506779
-0.506764
-0.506754
-0.506748
-0.506747
-0.50675
-0.506756
)
;

boundaryField
{
    floor
    {
        type            calculated;
        value           nonuniform List<scalar> 
30
(
0.000316745
0.000314103
0.000313708
0.000316946
0.000323766
0.00033367
0.000345818
0.000359221
0.00037283
0.000385604
0.000396574
0.000404887
0.00040985
0.000410959
0.000407921
0.000400674
0.000389386
0.000374459
0.000356505
0.000336331
0.000314902
0.000293298
0.000272664
0.000254156
0.000238876
0.000227776
0.000221527
0.000220281
0.000223347
0.00022877
)
;
    }
    ceiling
    {
        type            calculated;
        value           nonuniform List<scalar> 
30
(
-0.522969
-0.522966
-0.522965
-0.522968
-0.522974
-0.522983
-0.522994
-0.523006
-0.523019
-0.52303
-0.523039
-0.523047
-0.523051
-0.523051
-0.523048
-0.523041
-0.523031
-0.523017
-0.523
-0.522981
-0.522961
-0.522941
-0.522921
-0.522904
-0.522889
-0.522879
-0.522873
-0.522872
-0.522875
-0.52288
)
;
    }
    fixedWalls
    {
        type            calculated;
        value           nonuniform List<scalar> 
60
(
0
-0.00126271
-0.00379305
-0.00758789
-0.0126419
-0.0189473
-0.0264947
-0.0352727
-0.0452684
-0.0564677
-0.0688552
-0.0824144
-0.097128
-0.112978
-0.129946
-0.148013
-0.167161
-0.18737
-0.208622
-0.2309
-0.254185
-0.278463
-0.303716
-0.329932
-0.357098
-0.385202
-0.414235
-0.444189
-0.47506
-0.506844
-8.75807e-05
-0.00134671
-0.00387111
-0.00765904
-0.0127058
-0.019004
-0.0265444
-0.0353157
-0.045305
-0.0564982
-0.0688798
-0.0824334
-0.0971415
-0.112986
-0.129949
-0.148011
-0.167153
-0.187357
-0.208604
-0.230875
-0.254155
-0.278427
-0.303674
-0.329883
-0.357042
-0.385138
-0.414164
-0.444111
-0.474975
-0.506756
)
;
    }
    frontAndBack
    {
        type            empty;
    }
}


// ************************************************************************* //
