/*--------------------------------*- C++ -*----------------------------------*\
| =========                 |                                                 |
| \\      /  F ield         | OpenFOAM: The Open Source CFD Toolbox           |
|  \\    /   O peration     | Version:  2412                                  |
|   \\  /    A nd           | Website:  www.openfoam.com                      |
|    \\/     M anipulation  |                                                 |
\*---------------------------------------------------------------------------*/
FoamFile
{
    version     2.0;
    format      ascii;
    arch        "LSB;label=32;scalar=64";
    class       volScalarField;
    location    "900";
    object      p_rgh;
}
// * * * * * * * * * * * * * * * * * * * * * * * * * * * * * * * * * * * * * //

dimensions      [0 2 -2 0 0 0 0];

internalField   nonuniform List<scalar> 
900
(
0.000316745
0.000314103
0.000313708
0.000316946
0.000323766
0.00033367
0.000345818
0.000359221
0.00037283
0.000385604
0.000396574
0.000404887
0.00040985
0.000410959
0.000407921
0.000400674
0.000389386
0.000374459
0.000356505
0.000336331
0.000314902
0.000293298
0.000272664
0.000254156
0.000238876
0.000227776
0.000221527
0.000220281
0.000223347
0.00022877
0.0015862
0.00158396
0.00158452
0.00158837
0.00159518
0.0016045
0.00161562
0.00162768
0.00163981
0.00165109
0.00166069
0.00166785
0.00167196
0.00167259
0.00166948
0.00166258
0.00165204
0.00163824
0.00162172
0.00160321
0.00158355
0.00156371
0.00154467
0.00152743
0.00151292
0.00150193
0.00149502
0.00149239
0.00149386
0.00149859
0.00411239
0.00411128
0.0041132
0.00411832
0.00412605
0.00413592
0.00414725
0.00415929
0.00417121
0.00418219
0.00419145
0.00419829
0.00420214
0.00420261
0.00419944
0.00419261
0.00418227
0.00416875
0.00415258
0.00413445
0.00411515
0.00409558
0.00407665
0.00405926
0.00404424
0.00403233
0.00402411
0.00401984
0.00401991
0.00402414
0.00788306
0.00788401
0.00788802
0.0078952
0.0079048
0.00791631
0.00792905
0.00794227
0.00795518
0.00796695
0.00797683
0.00798411
0.00798825
0.00798884
0.00798565
0.00797863
0.00796794
0.00795392
0.00793711
0.00791818
0.00789793
0.00787725
0.00785702
0.00783812
0.00782136
0.0078075
0.00779715
0.0077907
0.00778885
0.00779174
0.0128808
0.012885
0.0128921
0.0129022
0.0129146
0.0129288
0.0129439
0.0129594
0.0129743
0.0129877
0.012999
0.0130074
0.0130122
0.0130132
0.0130099
0.0130025
0.012991
0.0129759
0.0129576
0.0129368
0.0129145
0.0128916
0.0128688
0.0128472
0.0128277
0.0128108
0.0127974
0.012788
0.0127832
0.0127834
0.0190836
0.0190922
0.0191032
0.0191172
0.0191333
0.0191509
0.0191695
0.019188
0.0192058
0.0192217
0.0192351
0.0192451
0.0192511
0.0192526
0.0192493
0.0192412
0.0192286
0.0192117
0.0191911
0.0191677
0.0191424
0.019116
0.0190897
0.0190644
0.0190409
0.0190202
0.0190029
0.0189894
0.0189807
0.0189769
0.0264649
0.0264787
0.0264945
0.0265131
0.0265337
0.0265557
0.0265783
0.0266008
0.0266221
0.0266413
0.0266573
0.0266694
0.0266768
0.026679
0.0266757
0.0266668
0.0266526
0.0266335
0.0266101
0.0265832
0.026554
0.0265234
0.0264926
0.0264626
0.0264343
0.0264088
0.0263866
0.0263684
0.0263548
0.0263458
0.0349939
0.0350138
0.0350351
0.0350589
0.0350845
0.0351115
0.035139
0.035166
0.0351915
0.0352143
0.0352335
0.035248
0.035257
0.0352601
0.0352567
0.0352469
0.0352309
0.0352092
0.0351824
0.0351515
0.0351177
0.0350821
0.035046
0.0350105
0.0349768
0.0349457
0.034918
0.0348942
0.0348748
0.0348597
0.0446363
0.0446628
0.04469
0.0447196
0.0447509
0.0447833
0.044816
0.044848
0.0448781
0.044905
0.0449276
0.0449448
0.0449557
0.0449596
0.0449562
0.0449454
0.0449274
0.0449027
0.0448722
0.0448369
0.044798
0.0447569
0.044715
0.0446734
0.0446335
0.0445963
0.0445625
0.0445325
0.0445067
0.0444847
0.0553548
0.0553882
0.0554218
0.0554574
0.0554946
0.0555328
0.0555711
0.0556083
0.0556433
0.0556745
0.0557007
0.0557207
0.0557336
0.0557385
0.055735
0.0557231
0.055703
0.0556752
0.0556407
0.0556007
0.0555564
0.0555095
0.0554613
0.0554134
0.055367
0.0553232
0.0552828
0.0552462
0.0552136
0.0551841
0.0671097
0.0671502
0.0671903
0.0672321
0.0672753
0.0673194
0.0673634
0.067406
0.0674458
0.0674814
0.0675113
0.0675342
0.067549
0.0675549
0.0675514
0.0675384
0.0675161
0.0674852
0.0674467
0.0674019
0.0673522
0.0672992
0.0672447
0.0671902
0.0671371
0.0670866
0.0670395
0.066996
0.0669562
0.066919
0.0798599
0.0799075
0.079954
0.0800019
0.0800512
0.0801011
0.0801506
0.0801985
0.0802432
0.0802831
0.0803166
0.0803423
0.080359
0.0803658
0.0803623
0.0803482
0.0803239
0.0802899
0.0802475
0.080198
0.0801429
0.0800841
0.0800233
0.0799623
0.0799025
0.0798453
0.0797914
0.079741
0.079694
0.0796489
0.0935634
0.0936179
0.0936706
0.0937245
0.0937795
0.093835
0.0938899
0.0939428
0.0939921
0.094036
0.0940729
0.0941012
0.0941197
0.0941275
0.0941239
0.0941088
0.0940825
0.0940458
0.0939997
0.0939458
0.0938856
0.0938213
0.0937545
0.0936873
0.0936211
0.0935574
0.0934969
0.0934398
0.0933856
0.0933327
0.108178
0.108239
0.108298
0.108357
0.108418
0.108478
0.108538
0.108596
0.108649
0.108697
0.108737
0.108767
0.108788
0.108796
0.108792
0.108777
0.108749
0.108709
0.10866
0.108602
0.108537
0.108468
0.108396
0.108323
0.108251
0.108181
0.108114
0.108051
0.10799
0.107929
0.123664
0.123731
0.123795
0.123859
0.123925
0.12399
0.124054
0.124115
0.124172
0.124223
0.124265
0.124298
0.12432
0.124329
0.124326
0.124309
0.12428
0.124238
0.124186
0.124125
0.124056
0.123983
0.123906
0.123828
0.123751
0.123675
0.123603
0.123534
0.123466
0.123399
0.139981
0.140053
0.140122
0.140191
0.14026
0.140329
0.140396
0.140461
0.140521
0.140574
0.140619
0.140653
0.140676
0.140686
0.140682
0.140665
0.140635
0.140592
0.140538
0.140474
0.140403
0.140325
0.140245
0.140163
0.140081
0.140001
0.139924
0.13985
0.139776
0.139703
0.157093
0.15717
0.157242
0.157315
0.157387
0.157459
0.157529
0.157596
0.157658
0.157713
0.157759
0.157794
0.157818
0.157828
0.157825
0.157808
0.157777
0.157733
0.157678
0.157612
0.157539
0.157459
0.157376
0.157291
0.157206
0.157122
0.157041
0.156962
0.156884
0.156805
0.174968
0.175048
0.175123
0.175197
0.175272
0.175346
0.175417
0.175486
0.175549
0.175605
0.175652
0.175688
0.175712
0.175722
0.175719
0.175702
0.175671
0.175627
0.175571
0.175505
0.17543
0.17535
0.175265
0.175178
0.175091
0.175005
0.174921
0.174839
0.174758
0.174674
0.193575
0.193657
0.193734
0.19381
0.193886
0.19396
0.194032
0.194101
0.194164
0.19422
0.194267
0.194303
0.194327
0.194338
0.194335
0.194318
0.194287
0.194244
0.194189
0.194123
0.194049
0.193968
0.193883
0.193796
0.193708
0.193621
0.193536
0.193452
0.193368
0.19328
0.212892
0.212975
0.213052
0.213128
0.213204
0.213278
0.213349
0.213417
0.213479
0.213534
0.21358
0.213616
0.213639
0.21365
0.213648
0.213631
0.213602
0.213559
0.213505
0.213441
0.213369
0.21329
0.213206
0.21312
0.213033
0.212947
0.212861
0.212776
0.21269
0.212601
0.232899
0.232982
0.233058
0.233133
0.233207
0.233279
0.233349
0.233415
0.233475
0.233528
0.233572
0.233607
0.23363
0.23364
0.233638
0.233623
0.233595
0.233554
0.233503
0.233442
0.233372
0.233296
0.233215
0.233131
0.233047
0.232962
0.232878
0.232794
0.232708
0.232619
0.253585
0.253666
0.25374
0.253813
0.253884
0.253953
0.254019
0.254082
0.254139
0.254189
0.254231
0.254263
0.254285
0.254295
0.254293
0.254279
0.254253
0.254216
0.254168
0.25411
0.254045
0.253973
0.253897
0.253818
0.253737
0.253656
0.253574
0.253493
0.253409
0.25332
0.274944
0.275022
0.275092
0.275161
0.275228
0.275292
0.275354
0.275412
0.275465
0.275511
0.27555
0.275579
0.2756
0.275609
0.275608
0.275595
0.275572
0.275538
0.275495
0.275442
0.275383
0.275317
0.275247
0.275173
0.275098
0.275022
0.274945
0.274867
0.274786
0.274701
0.296978
0.29705
0.297116
0.297179
0.29724
0.297299
0.297355
0.297407
0.297454
0.297495
0.29753
0.297557
0.297575
0.297584
0.297583
0.297572
0.297552
0.297522
0.297484
0.297438
0.297386
0.297327
0.297264
0.297198
0.29713
0.297061
0.29699
0.296918
0.296843
0.296762
0.319694
0.31976
0.319819
0.319875
0.319929
0.319981
0.32003
0.320075
0.320116
0.320151
0.320181
0.320204
0.320219
0.320227
0.320227
0.320218
0.320202
0.320177
0.320146
0.320107
0.320063
0.320013
0.319959
0.319902
0.319843
0.319782
0.319719
0.319654
0.319586
0.319512
0.34311
0.343167
0.343218
0.343266
0.343312
0.343355
0.343395
0.343432
0.343465
0.343494
0.343518
0.343537
0.343549
0.343556
0.343556
0.34355
0.343538
0.343519
0.343495
0.343465
0.34343
0.34339
0.343347
0.3433
0.343251
0.3432
0.343147
0.343091
0.343031
0.342966
0.367248
0.367295
0.367337
0.367375
0.367411
0.367444
0.367475
0.367503
0.367528
0.367549
0.367566
0.36758
0.36759
0.367595
0.367596
0.367592
0.367584
0.367572
0.367556
0.367535
0.36751
0.367482
0.367451
0.367416
0.367379
0.36734
0.367298
0.367252
0.367203
0.367148
0.392139
0.392175
0.392205
0.392233
0.392258
0.392281
0.392301
0.392318
0.392333
0.392346
0.392357
0.392365
0.392371
0.392375
0.392376
0.392376
0.392373
0.392367
0.39236
0.392349
0.392336
0.392321
0.392303
0.392282
0.392258
0.392231
0.392201
0.392168
0.392131
0.392089
0.417822
0.417844
0.417864
0.41788
0.417893
0.417903
0.417911
0.417918
0.417922
0.417925
0.417928
0.41793
0.417932
0.417934
0.417937
0.417939
0.417941
0.417944
0.417945
0.417947
0.417946
0.417945
0.417941
0.417935
0.417926
0.417913
0.417897
0.417877
0.417853
0.417825
0.444338
0.444348
0.444355
0.444359
0.444359
0.444357
0.444352
0.444345
0.444338
0.444331
0.444325
0.444321
0.444319
0.444319
0.444322
0.444327
0.444335
0.444346
0.444358
0.444371
0.444385
0.444399
0.444411
0.444421
0.444428
0.444431
0.444429
0.444423
0.444412
0.444398
)
;

boundaryField
{
    floor
    {
        type            fixedFluxPressure;
        gradient        uniform 0;
        value           nonuniform List<scalar> 
30
(
0.000316745
0.000314103
0.000313708
0.000316946
0.000323766
0.00033367
0.000345818
0.000359221
0.00037283
0.000385604
0.000396574
0.000404887
0.00040985
0.000410959
0.000407921
0.000400674
0.000389386
0.000374459
0.000356505
0.000336331
0.000314902
0.000293298
0.000272664
0.000254156
0.000238876
0.000227776
0.000221527
0.000220281
0.000223347
0.00022877
)
;
    }
    ceiling
    {
        type            fixedFluxPressure;
        gradient        nonuniform List<scalar> 
30
(
8.21738
8.21345
8.20952
8.20561
8.20174
8.19796
8.19434
8.19096
8.18791
8.18527
8.18309
8.18145
8.18038
8.17994
8.18015
8.18101
8.18251
8.18463
8.18733
8.19054
8.19421
8.19826
8.20258
8.20708
8.21167
8.21627
8.22085
8.22541
8.23004
8.23492
)
;
        value           nonuniform List<scalar> 
30
(
0.458031
0.458034
0.458035
0.458032
0.458026
0.458017
0.458006
0.457994
0.457981
0.45797
0.457961
0.457953
0.457949
0.457949
0.457952
0.457959
0.457969
0.457983
0.458
0.458019
0.458039
0.458059
0.458079
0.458096
0.458111
0.458121
0.458127
0.458128
0.458125
0.45812
)
;
    }
    fixedWalls
    {
        type            fixedFluxPressure;
        gradient        uniform 0;
        value           nonuniform List<scalar> 
60
(
0.000316745
0.0015862
0.00411239
0.00788306
0.0128808
0.0190836
0.0264649
0.0349939
0.0446363
0.0553548
0.0671097
0.0798599
0.0935634
0.108178
0.123664
0.139981
0.157093
0.174968
0.193575
0.212892
0.232899
0.253585
0.274944
0.296978
0.319694
0.34311
0.367248
0.392139
0.417822
0.444338
0.00022877
0.00149859
0.00402414
0.00779174
0.0127834
0.0189769
0.0263458
0.0348597
0.0444847
0.0551841
0.066919
0.0796489
0.0933327
0.107929
0.123399
0.139703
0.156805
0.174674
0.19328
0.212601
0.232619
0.25332
0.274701
0.296762
0.319512
0.342966
0.367148
0.392089
0.417825
0.444398
)
;
    }
    frontAndBack
    {
        type            empty;
    }
}


// ************************************************************************* //
