/*--------------------------------*- C++ -*----------------------------------*\
| =========                 |                                                 |
| \\      /  F ield         | OpenFOAM: The Open Source CFD Toolbox           |
|  \\    /   O peration     | Version:  2412                                  |
|   \\  /    A nd           | Website:  www.openfoam.com                      |
|    \\/     M anipulation  |                                                 |
\*---------------------------------------------------------------------------*/
FoamFile
{
    version     2.0;
    format      ascii;
    arch        "LSB;label=32;scalar=64";
    class       surfaceScalarField;
    location    "900";
    object      phi;
}
// * * * * * * * * * * * * * * * * * * * * * * * * * * * * * * * * * * * * * //

dimensions      [0 3 -1 0 0 0 0];

oriented        oriented;

internalField   nonuniform List<scalar> 
1740
(
-9.5484e-10
8.18768e-10
-3.7501e-09
2.79601e-09
-7.6894e-09
3.94011e-09
-1.18684e-08
4.17996e-09
-1.55695e-08
3.70187e-09
-1.82718e-08
2.70279e-09
-1.96322e-08
1.36068e-09
-1.94603e-08
-1.72106e-10
-1.7697e-08
-1.76375e-09
-1.43995e-08
-3.29824e-09
-9.72565e-09
-4.67485e-09
-3.91833e-09
-5.80844e-09
2.71134e-09
-6.63085e-09
9.80177e-09
-7.09162e-09
1.69601e-08
-7.15947e-09
2.37825e-08
-6.82356e-09
2.98755e-08
-6.09394e-09
3.4876e-08
-5.0014e-09
3.84722e-08
-3.59695e-09
4.04223e-08
-1.95076e-09
4.05727e-08
-1.50897e-10
3.88741e-08
1.69837e-09
3.53955e-08
3.4785e-09
3.03422e-08
5.05348e-09
2.40764e-08
6.26632e-09
1.71417e-08
6.93543e-09
1.02887e-08
6.85416e-09
4.4765e-09
5.81384e-09
8.02223e-10
3.67639e-09
8.04533e-10
-3.00988e-09
3.82933e-09
-9.96392e-09
9.75311e-09
-1.90092e-08
1.2988e-08
-2.83792e-08
1.35526e-08
-3.65916e-08
1.19162e-08
-4.25066e-08
8.61891e-09
-4.53308e-08
4.18532e-09
-4.45989e-08
-9.04175e-10
-4.0149e-08
-6.21441e-09
-3.20954e-08
-1.1353e-08
-2.07974e-08
-1.59744e-08
-6.8235e-09
-1.9784e-08
9.08888e-09
-2.25449e-08
2.6077e-08
-2.40814e-08
4.3201e-08
-2.42849e-08
5.94946e-08
-2.31185e-08
7.40168e-08
-2.06172e-08
8.59032e-08
-1.68887e-08
9.44165e-08
-1.21106e-08
9.89928e-08
-6.52713e-09
9.92857e-08
-4.43437e-10
9.52042e-08
5.78076e-09
8.69455e-08
1.17385e-08
7.5028e-08
1.69731e-08
6.03208e-08
2.09763e-08
4.4068e-08
2.31918e-08
2.78939e-08
2.30322e-08
1.37604e-08
1.99516e-08
3.81799e-09
1.3623e-08
4.62438e-09
-4.44875e-09
8.27892e-09
-1.4168e-08
1.94747e-08
-2.64216e-08
2.52438e-08
-3.89227e-08
2.60554e-08
-4.97694e-08
2.2764e-08
-5.74739e-08
1.63239e-08
-6.09749e-08
7.68628e-09
-5.96345e-08
-2.24533e-09
-5.32197e-08
-1.26304e-08
-4.18753e-08
-2.26991e-08
-2.60858e-08
-3.17657e-08
-6.62876e-09
-3.92431e-08
1.54803e-08
-4.4656e-08
3.9049e-08
-4.76519e-08
6.27759e-08
-4.80137e-08
8.5323e-08
-4.56671e-08
1.05388e-07
-4.06834e-08
1.21777e-07
-3.32788e-08
1.33476e-07
-2.38104e-08
1.39716e-07
-1.27674e-08
1.40033e-07
-7.60009e-10
1.34319e-07
1.14957e-08
1.22865e-07
2.31938e-08
1.06396e-07
3.3443e-08
8.60996e-08
4.12752e-08
6.36304e-08
4.56637e-08
4.11009e-08
4.55651e-08
2.10308e-08
4.00254e-08
6.26525e-09
2.83922e-08
1.08909e-08
-5.19984e-09
1.34802e-08
-1.64562e-08
3.07342e-08
-3.04997e-08
3.92899e-08
-4.47035e-08
4.02611e-08
-5.6924e-08
3.4986e-08
-6.54864e-08
2.4887e-08
-6.91874e-08
1.13875e-08
-6.72961e-08
-4.13716e-09
-5.95412e-08
-2.03863e-08
-4.6086e-08
-3.61556e-08
-2.74885e-08
-5.03649e-08
-4.6495e-09
-6.20837e-08
2.12494e-08
-7.05566e-08
4.88181e-08
-7.52221e-08
7.65382e-08
-7.57351e-08
1.02847e-07
-7.19775e-08
1.26227e-07
-6.40632e-08
1.45285e-07
-5.23374e-08
1.58843e-07
-3.73688e-08
1.66012e-07
-1.99356e-08
1.66258e-07
-1.00581e-09
1.59467e-07
1.82881e-08
1.45985e-07
3.66778e-08
1.26655e-07
5.27753e-08
1.02837e-07
6.50957e-08
7.64104e-08
7.20923e-08
4.97629e-08
7.22151e-08
2.57698e-08
6.40212e-08
7.80934e-09
4.63551e-08
1.87006e-08
-5.44069e-09
1.89224e-08
-1.72678e-08
4.25639e-08
-3.19981e-08
5.40222e-08
-4.68363e-08
5.51008e-08
-5.95237e-08
4.76745e-08
-6.83032e-08
3.36669e-08
-7.19126e-08
1.49966e-08
-6.95832e-08
-6.46744e-09
-6.10295e-08
-2.89413e-08
-4.6425e-08
-5.07617e-08
-2.63632e-08
-7.04285e-08
-1.8042e-09
-8.66447e-08
2.59908e-08
-9.83535e-08
5.55361e-08
-1.04769e-07
8.52081e-08
-1.05409e-07
1.13336e-07
-1.00107e-07
1.38295e-07
-8.90234e-08
1.586e-07
-7.26424e-08
1.72991e-07
-5.17606e-08
1.80522e-07
-2.74663e-08
1.80628e-07
-1.11095e-09
1.73188e-07
2.57287e-08
1.58574e-07
5.1293e-08
1.37681e-07
7.36697e-08
1.11946e-07
9.08318e-08
8.33542e-08
1.00686e-07
5.44325e-08
1.01138e-07
2.8269e-08
9.01858e-08
8.58226e-09
6.60426e-08
2.72824e-08
-5.33255e-09
2.42564e-08
-1.70185e-08
5.42521e-08
-3.16018e-08
6.86072e-08
-4.62723e-08
6.97725e-08
-5.87609e-08
6.01637e-08
-6.73069e-08
4.22128e-08
-7.06475e-08
1.83366e-08
-6.80149e-08
-9.10118e-09
-5.91251e-08
-3.78325e-08
-4.41551e-08
-6.57335e-08
-2.37044e-08
-9.08811e-08
1.25744e-09
-1.11608e-07
2.94558e-08
-1.26554e-07
5.93891e-08
-1.34704e-07
8.94156e-08
-1.35437e-07
1.17846e-07
-1.28538e-07
1.43036e-07
-1.14215e-07
1.63484e-07
-9.30912e-08
1.77918e-07
-6.61953e-08
1.85382e-07
-3.49298e-08
1.85304e-07
-1.03331e-09
1.77565e-07
3.34688e-08
1.62537e-07
6.63216e-08
1.41122e-07
9.50851e-08
1.14768e-07
1.17186e-07
8.54785e-08
1.29976e-07
5.58216e-08
1.30795e-07
2.89648e-08
1.17042e-07
8.76402e-09
8.62427e-08
3.60454e-08
-4.99732e-09
2.92549e-08
-1.60408e-08
6.5297e-08
-2.98662e-08
8.24337e-08
-4.37741e-08
8.36809e-08
-5.55742e-08
7.19639e-08
-6.35664e-08
5.02045e-08
-6.65328e-08
2.13021e-08
-6.37342e-08
-1.1901e-08
-5.48993e-08
-4.6669e-08
-4.02017e-08
-8.04328e-08
-2.02234e-08
-1.10861e-07
4.09535e-09
-1.35929e-07
3.15187e-08
-1.53979e-07
6.0591e-08
-1.63778e-07
8.97204e-08
-1.64567e-07
1.17268e-07
-1.56087e-07
1.4164e-07
-1.38588e-07
1.6138e-07
-1.12831e-07
1.75253e-07
-8.00686e-08
1.8233e-07
-4.20073e-08
1.82058e-07
-7.61644e-10
1.74319e-07
4.12084e-08
1.59473e-07
8.1167e-08
1.38396e-07
1.16161e-07
1.12497e-07
1.43085e-07
8.37295e-08
1.58742e-07
5.46138e-08
1.5991e-07
2.82726e-08
1.43382e-07
8.51334e-09
1.06001e-07
4.45582e-08
-4.51836e-09
3.37741e-08
-1.45779e-08
7.53573e-08
-2.72124e-08
9.50688e-08
-3.99277e-08
9.63962e-08
-5.06855e-08
8.27215e-08
-5.78997e-08
5.7418e-08
-6.04341e-08
2.38356e-08
-5.76002e-08
-1.4736e-08
-4.9147e-08
-5.51234e-08
-3.52387e-08
-9.43423e-08
-1.64211e-08
-1.2968e-07
6.42559e-09
-1.58776e-07
3.21453e-08
-1.79699e-07
5.93766e-08
-1.9101e-07
8.66307e-08
-1.91822e-07
1.12374e-07
-1.8183e-07
1.35116e-07
-1.61329e-07
1.53492e-07
-1.31207e-07
1.66347e-07
-9.2923e-08
1.7281e-07
-4.84699e-08
1.72361e-07
-3.12891e-10
1.64889e-07
4.86807e-08
1.50732e-07
9.53236e-08
1.30714e-07
1.36179e-07
1.06162e-07
1.67637e-07
7.89251e-08
1.85979e-07
5.13935e-08
1.8744e-07
2.65337e-08
1.68241e-07
7.9508e-09
1.24583e-07
5.25094e-08
-3.95095e-09
3.77255e-08
-1.28016e-08
8.42081e-08
-2.39487e-08
1.06216e-07
-3.51712e-08
1.07618e-07
-4.46394e-08
9.21893e-08
-5.09246e-08
6.37026e-08
-5.30026e-08
2.59129e-08
-5.02534e-08
-1.74859e-08
-4.24522e-08
-6.29253e-08
-2.97493e-08
-1.07046e-07
-1.26391e-08
-1.4679e-07
8.0825e-09
-1.79498e-07
3.13712e-08
-2.02988e-07
5.59975e-08
-2.15635e-07
8.06167e-08
-2.1644e-07
1.03844e-07
-2.05057e-07
1.24333e-07
-1.81816e-07
1.40848e-07
-1.47721e-07
1.52347e-07
-1.0442e-07
1.58039e-07
-5.41608e-08
1.57453e-07
2.73248e-10
1.50489e-07
5.56461e-08
1.37453e-07
1.0836e-07
1.19096e-07
1.54537e-07
9.66294e-08
1.90103e-07
7.17462e-08
2.10862e-07
4.66362e-08
2.12551e-07
2.40146e-08
1.90863e-07
7.16445e-09
1.41434e-07
5.96753e-08
-3.33115e-09
4.10567e-08
-1.08306e-08
9.17073e-08
-2.02962e-08
1.15681e-07
-2.98255e-08
1.17147e-07
-3.78398e-08
1.00203e-07
-4.31017e-08
6.89641e-08
-4.47229e-08
2.75336e-08
-4.21663e-08
-2.00429e-08
-3.52384e-08
-6.98533e-08
-2.4072e-08
-1.18212e-07
-9.09826e-09
-1.61764e-07
8.99002e-09
-1.97586e-07
2.92848e-08
-2.23281e-07
5.07179e-08
-2.37067e-07
7.21208e-08
-2.37842e-07
9.229e-08
-2.25224e-07
1.10054e-07
-1.99578e-07
1.2434e-07
-1.62005e-07
1.34237e-07
-1.14315e-07
1.39058e-07
-5.89801e-08
1.38392e-07
9.41142e-10
1.32149e-07
6.18909e-08
1.20598e-07
1.19911e-07
1.044e-07
1.70736e-07
8.46207e-08
2.09884e-07
6.2751e-08
2.32733e-07
4.07214e-08
2.34582e-07
2.09201e-08
2.10666e-07
6.21807e-09
1.56139e-07
6.5895e-08
-2.68262e-09
4.37394e-08
-8.74671e-09
9.77708e-08
-1.64117e-08
1.23346e-07
-2.41232e-08
1.24858e-07
-3.05832e-08
1.06663e-07
-3.47703e-08
7.31509e-08
-3.59509e-08
2.87139e-08
-3.3682e-08
-2.23119e-08
-2.78057e-08
-7.57295e-08
-1.84343e-08
-1.27583e-07
-5.92706e-09
-1.74271e-07
9.14043e-09
-2.12653e-07
2.60153e-08
-2.40155e-07
4.38126e-08
-2.54863e-07
6.1564e-08
-2.55592e-07
7.8272e-08
-2.41931e-07
9.29653e-08
-2.1427e-07
1.04753e-07
-1.73791e-07
1.1288e-07
-1.2244e-07
1.16773e-07
-6.28715e-08
1.16089e-07
1.62673e-09
1.10753e-07
6.72288e-08
1.0099e-07
1.29676e-07
8.7352e-08
1.84375e-07
7.07359e-08
2.26502e-07
5.23949e-08
2.51076e-07
3.39513e-08
2.53028e-07
1.74075e-08
2.27213e-07
5.15814e-09
1.6839e-07
7.10535e-08
-2.02106e-09
4.57604e-08
-6.60611e-09
1.02355e-07
-1.24057e-08
1.29145e-07
-1.82314e-08
1.30683e-07
-2.30844e-08
1.11516e-07
-2.61774e-08
7.62433e-08
-2.69443e-08
2.94803e-08
-2.50449e-08
-2.42119e-08
-2.03599e-08
-8.0415e-08
-1.29792e-08
-1.34964e-07
-3.18368e-09
-1.84066e-07
8.57843e-09
-2.24415e-07
2.1723e-08
-2.533e-07
3.55642e-08
-2.68704e-07
4.93515e-08
-2.69379e-07
6.23116e-08
-2.54891e-07
7.36907e-08
-2.2565e-07
8.27975e-08
-1.82898e-07
8.90433e-08
-1.28686e-07
9.19817e-08
-6.58096e-08
9.13433e-08
2.26547e-09
8.70678e-08
7.15046e-08
7.93311e-08
1.37413e-07
6.85662e-08
1.95141e-07
5.54777e-08
2.39591e-07
4.10529e-08
2.65502e-07
2.6569e-08
2.67513e-07
1.35998e-08
2.40183e-07
4.01927e-09
1.77971e-07
7.50716e-08
-1.35696e-09
4.71172e-08
-4.44773e-09
1.05445e-07
-8.35652e-09
1.33053e-07
-1.22691e-08
1.34595e-07
-1.5498e-08
1.14743e-07
-1.75002e-08
7.82444e-08
-1.78861e-08
2.98653e-08
-1.64237e-08
-2.56753e-08
-1.30344e-08
-8.38052e-08
-7.78452e-09
-1.40215e-07
-8.7219e-10
-1.90979e-07
7.38881e-09
-2.32677e-07
1.65921e-08
-2.62504e-07
2.62615e-08
-2.78374e-07
3.58763e-08
-2.78994e-07
4.48993e-08
-2.63915e-07
5.28065e-08
-2.33558e-07
5.91163e-08
-1.89209e-07
6.34173e-08
-1.32988e-07
6.53959e-08
-6.77892e-08
6.48608e-08
2.79979e-09
6.1767e-08
7.45979e-08
5.6236e-08
1.42943e-07
4.85719e-08
2.02805e-07
3.92727e-08
2.4889e-07
2.90378e-08
2.75737e-07
1.87735e-08
2.77777e-07
9.59535e-09
2.49361e-07
2.82837e-09
1.84737e-07
7.78987e-08
-6.97508e-10
4.78143e-08
-2.29867e-09
1.07044e-07
-4.31906e-09
1.35073e-07
-6.32141e-09
1.36596e-07
-7.93406e-09
1.16355e-07
-8.86416e-09
7.91731e-08
-8.90317e-09
2.99032e-08
-7.92987e-09
-2.66495e-08
-5.90777e-09
-8.58283e-08
-2.87877e-09
-1.43245e-07
1.04457e-09
-1.94902e-07
5.68707e-09
-2.3732e-07
1.08249e-08
-2.67643e-07
1.61978e-08
-2.83747e-07
2.15215e-08
-2.84318e-07
2.6502e-08
-2.68896e-07
3.08521e-08
-2.37909e-07
3.43059e-08
-1.92664e-07
3.6635e-08
-1.35318e-07
3.76626e-08
-6.88174e-08
3.72779e-08
3.18414e-09
3.5451e-08
7.64248e-08
3.22461e-08
1.46148e-07
2.78317e-08
2.07219e-07
2.2489e-08
2.54233e-07
1.66162e-08
2.8161e-07
1.07318e-08
2.83661e-07
5.47571e-09
2.54616e-07
1.60791e-09
1.88603e-07
7.95074e-08
-4.76903e-11
4.78614e-08
-1.77916e-10
1.07173e-07
-3.32261e-10
1.35226e-07
-4.48376e-10
1.3671e-07
-4.70493e-10
1.16376e-07
-3.56737e-10
7.90582e-08
-8.0638e-11
2.96264e-08
3.6769e-10
-2.7098e-08
9.82622e-10
-8.64436e-08
1.74682e-09
-1.44009e-07
2.63473e-09
-1.95789e-07
3.61166e-09
-2.38296e-07
4.6378e-09
-2.68669e-07
5.67017e-09
-2.8478e-07
6.66312e-09
-2.8531e-07
7.56874e-09
-2.698e-07
8.33847e-09
-2.38677e-07
8.92502e-09
-1.93249e-07
9.28433e-09
-1.35676e-07
9.37796e-09
-6.89098e-08
9.17665e-09
3.38697e-09
8.66534e-09
7.69379e-08
7.84924e-09
1.46966e-07
6.75856e-09
2.08312e-07
5.4525e-09
2.55541e-07
4.02154e-09
2.83042e-07
2.589e-09
2.85095e-07
1.31148e-09
2.55894e-07
3.77834e-10
1.89539e-07
7.98886e-08
5.89126e-10
4.72715e-08
1.90124e-09
1.05859e-07
3.57607e-09
1.33549e-07
5.30662e-09
1.34978e-07
6.83695e-09
1.14845e-07
7.96096e-09
7.79335e-08
8.52508e-09
2.9062e-08
8.42966e-09
-2.70019e-08
7.62811e-09
-8.56414e-08
6.12746e-09
-1.42509e-07
3.98871e-09
-1.9365e-07
1.3173e-09
-2.35623e-07
-1.74401e-09
-2.65606e-07
-5.02295e-09
-2.815e-07
-8.32868e-09
-2.82003e-07
-1.14651e-08
-2.66662e-07
-1.42436e-08
-2.35897e-07
-1.64947e-08
-1.90996e-07
-1.80791e-08
-1.3409e-07
-1.88979e-08
-6.80888e-08
-1.88994e-08
3.3908e-09
-1.80837e-08
7.61247e-08
-1.65044e-08
1.4539e-07
-1.42693e-08
2.06079e-07
-1.15407e-08
2.52815e-07
-8.53558e-09
2.80039e-07
-5.52501e-09
2.82086e-07
-2.83457e-09
2.53207e-07
-8.44512e-10
1.87553e-07
7.90466e-08
1.21059e-09
4.60602e-08
3.92886e-09
1.03139e-07
7.38473e-09
1.30093e-07
1.09103e-08
1.31452e-07
1.39459e-08
1.11809e-07
1.60439e-08
7.58352e-08
1.68756e-08
2.82296e-08
1.62353e-08
-2.63612e-08
1.4038e-08
-8.34429e-08
1.03148e-08
-1.38787e-07
5.2108e-09
-1.88547e-07
-1.03135e-09
-2.2938e-07
-8.08994e-09
-2.58547e-07
-1.55826e-08
-2.74008e-07
-2.30883e-08
-2.74499e-07
-3.01732e-08
-2.59578e-07
-3.64171e-08
-2.29653e-07
-4.14389e-08
-1.85975e-07
-4.49204e-08
-1.30608e-07
-4.66281e-08
-6.63805e-08
-4.64309e-08
3.19434e-09
-4.4314e-08
7.40085e-08
-4.03877e-08
1.41464e-07
-3.48943e-08
2.00586e-07
-2.8212e-08
2.46133e-07
-2.0858e-08
2.72685e-07
-1.34896e-08
2.74719e-07
-6.9052e-09
2.46625e-07
-2.0449e-09
1.82696e-07
7.70002e-08
1.81469e-09
4.42451e-08
5.89606e-09
9.90566e-08
1.10748e-08
1.24914e-07
1.63332e-08
1.26193e-07
2.08188e-08
1.07323e-07
2.38534e-08
7.28007e-08
2.494e-08
2.71414e-08
2.3772e-08
-2.51942e-08
2.0229e-08
-7.98989e-08
1.43668e-08
-1.32925e-07
6.41069e-09
-1.80593e-07
-3.26533e-09
-2.19705e-07
-1.41671e-08
-2.47646e-07
-2.57102e-08
-2.62466e-07
-3.7253e-08
-2.62957e-07
-4.81342e-08
-2.48699e-07
-5.77119e-08
-2.20077e-07
-6.54021e-08
-1.78286e-07
-7.07145e-08
-1.25297e-07
-7.32862e-08
-6.38098e-08
-7.29093e-08
2.81642e-09
-6.95535e-08
7.06517e-08
-6.33825e-08
1.35292e-07
-5.47658e-08
1.91968e-07
-4.42877e-08
2.35653e-07
-3.2752e-08
2.61149e-07
-2.11866e-08
2.63154e-07
-1.08454e-08
2.36284e-07
-3.21078e-09
1.75061e-07
7.37861e-08
2.39908e-09
4.18458e-08
7.79282e-09
9.36619e-08
1.4625e-08
1.18081e-07
2.15425e-08
1.19274e-07
2.74145e-08
1.0145e-07
3.13459e-08
6.88699e-08
3.26827e-08
2.58033e-08
3.10229e-08
-2.35369e-08
2.62142e-08
-7.50899e-08
1.83378e-08
-1.25047e-07
7.695e-09
-1.69951e-07
-5.21757e-09
-2.06794e-07
-1.97434e-08
-2.33121e-07
-3.51073e-08
-2.47101e-07
-5.04599e-08
-2.47604e-07
-6.49264e-08
-2.34231e-07
-7.76569e-08
-2.07346e-07
-8.78765e-08
-1.68066e-07
-9.49332e-08
-1.1824e-07
-9.83415e-08
-6.0401e-08
-9.78202e-08
2.29567e-09
-9.33232e-08
6.61551e-08
-8.50623e-08
1.27031e-07
-7.3525e-08
1.80432e-07
-5.94862e-08
2.21616e-07
-4.40175e-08
2.45682e-07
-2.84934e-08
2.47632e-07
-1.45974e-08
2.22389e-07
-4.32711e-09
1.64788e-07
6.94606e-08
2.9604e-09
3.88851e-08
9.60529e-09
8.70157e-08
1.80066e-08
1.0968e-07
2.64943e-08
1.10784e-07
3.36772e-08
9.42652e-08
3.84613e-08
6.4087e-08
4.00498e-08
2.42158e-08
3.79536e-08
-2.14424e-08
3.19904e-08
-6.91277e-08
2.22674e-08
-1.15323e-07
9.1573e-09
-1.56838e-07
-6.73075e-09
-1.90906e-07
-2.45921e-08
-2.1526e-07
-4.34762e-08
-2.28217e-07
-6.23429e-08
-2.28735e-07
-8.0121e-08
-2.16451e-07
-9.577e-08
-1.91695e-07
-1.0834e-07
-1.55494e-07
-1.1703e-07
-1.09547e-07
-1.21242e-07
-5.61871e-08
-1.20625e-07
1.68148e-09
-1.15118e-07
6.06505e-08
-1.04975e-07
1.16891e-07
-9.07874e-08
1.66247e-07
-7.35032e-08
2.04335e-07
-5.44354e-08
2.26618e-07
-3.52738e-08
2.28473e-07
-1.8095e-08
2.05212e-07
-5.37318e-09
1.52067e-07
6.40925e-08
3.49328e-09
3.53914e-08
1.13122e-08
7.91948e-08
2.11757e-08
9.98168e-08
3.11223e-08
1.00838e-07
3.95235e-08
8.58612e-08
4.51071e-08
5.85039e-08
4.69517e-08
2.23738e-08
4.44932e-08
-1.89829e-08
3.75211e-08
-6.21578e-08
2.61658e-08
-1.03968e-07
1.08663e-08
-1.41538e-07
-7.66712e-09
-1.72371e-07
-2.84985e-08
-1.94429e-07
-5.05227e-08
-2.06194e-07
-7.25298e-08
-2.0673e-07
-9.32745e-08
-1.95707e-07
-1.11546e-07
-1.73423e-07
-1.2624e-07
-1.408e-07
-1.36422e-07
-9.93656e-08
-1.41393e-07
-5.1217e-08
-1.4074e-07
1.02848e-09
-1.34386e-07
5.42959e-08
-1.22619e-07
1.05124e-07
-1.06123e-07
1.49751e-07
-8.59936e-08
1.84205e-07
-6.37537e-08
2.04377e-07
-4.13678e-08
2.06086e-07
-2.12579e-08
1.851e-07
-6.32532e-09
1.37137e-07
5.77663e-08
3.98844e-09
3.14029e-08
1.28791e-08
7.03019e-08
2.4063e-08
8.86331e-08
3.53224e-08
8.9582e-08
4.4823e-08
7.63589e-08
5.11384e-08
5.21864e-08
5.3243e-08
2.02696e-08
5.05125e-08
-1.62497e-08
4.27138e-08
-5.43599e-08
2.99949e-08
-9.12526e-08
1.28515e-08
-1.24396e-07
-7.91847e-09
-1.51601e-07
-3.1267e-08
-1.7108e-07
-5.59585e-08
-1.81503e-07
-8.06406e-08
-1.82048e-07
-1.03921e-07
-1.72428e-07
-1.24445e-07
-1.529e-07
-1.40977e-07
-1.2427e-07
-1.52469e-07
-8.78748e-08
-1.58136e-07
-4.55518e-08
-1.57511e-07
4.02552e-10
-1.50501e-07
4.7285e-08
-1.37423e-07
9.20447e-08
-1.19033e-07
1.31361e-07
-9.65501e-08
1.61721e-07
-7.16687e-08
1.79494e-07
-4.6578e-08
1.80993e-07
-2.39861e-08
1.62507e-07
-7.15936e-09
1.20314e-07
5.06023e-08
4.42931e-09
2.69745e-08
1.42495e-08
6.04804e-08
2.656e-08
7.63201e-08
3.8934e-08
7.72117e-08
4.93744e-08
6.59191e-08
5.63317e-08
4.52264e-08
5.86972e-08
1.79012e-08
5.58011e-08
-1.3352e-08
4.73964e-08
-4.59528e-08
3.36448e-08
-7.75008e-08
1.50847e-08
-1.05837e-07
-7.41733e-09
-1.29099e-07
-3.27249e-08
-1.45771e-07
-5.95003e-08
-1.54725e-07
-8.6281e-08
-1.55265e-07
-1.11561e-07
-1.47145e-07
-1.33874e-07
-1.30584e-07
-1.51881e-07
-1.0626e-07
-1.64447e-07
-7.53063e-08
-1.70717e-07
-3.92793e-08
-1.70182e-07
-1.29883e-10
-1.62734e-07
3.98398e-08
-1.48709e-07
7.8023e-08
-1.28921e-07
1.11575e-07
-1.04677e-07
1.3748e-07
-7.7803e-08
1.52622e-07
-5.06534e-08
1.53846e-07
-2.61493e-08
1.38008e-07
-7.83979e-09
1.02005e-07
4.27658e-08
4.78697e-09
2.21885e-08
1.53317e-08
4.99372e-08
2.85001e-08
6.31458e-08
4.17178e-08
6.39949e-08
5.28798e-08
5.47597e-08
6.03537e-08
3.77532e-08
6.29733e-08
1.52799e-08
6.00365e-08
-1.04158e-08
5.12902e-08
-3.72044e-08
3.69076e-08
-6.3116e-08
1.74549e-08
-8.63839e-08
-6.15682e-09
-1.05489e-07
-3.27335e-08
-1.19196e-07
-6.08708e-08
-1.26589e-07
-8.90345e-08
-1.27102e-07
-1.15645e-07
-1.20536e-07
-1.39165e-07
-1.07064e-07
-1.58188e-07
-8.72389e-08
-1.71519e-07
-6.19762e-08
-1.78257e-07
-3.25418e-08
-1.77863e-07
-5.24662e-10
-1.70218e-07
3.21933e-08
-1.55668e-07
6.3472e-08
-1.35061e-07
9.0966e-08
-1.09764e-07
1.12182e-07
-8.16817e-08
1.24538e-07
-5.32693e-08
1.25434e-07
-2.75729e-08
1.12313e-07
-8.30623e-09
8.27322e-08
3.4461e-08
5.01444e-09
1.71731e-08
1.59833e-08
3.89734e-08
2.96354e-08
4.9489e-08
4.33282e-08
5.03007e-08
5.49135e-08
4.31763e-08
6.27251e-08
2.99441e-08
6.55716e-08
1.24328e-08
6.27363e-08
-7.58388e-09
5.39649e-08
-2.84352e-08
3.94385e-08
-4.85891e-08
1.97356e-08
-6.66794e-08
-4.21709e-09
-8.15349e-08
-3.12061e-08
-9.22062e-08
-5.98053e-08
-9.79894e-08
-8.84572e-08
-9.845e-08
-1.15559e-07
-9.34339e-08
-1.39549e-07
-8.30738e-08
-1.58998e-07
-6.77901e-08
-1.7269e-07
-4.82844e-08
-1.79703e-07
-2.55277e-08
-1.79485e-07
-7.43097e-10
-1.71906e-07
2.46145e-08
-1.57314e-07
4.88805e-08
-1.36568e-07
7.02196e-08
-1.11056e-07
8.66694e-08
-8.27085e-08
9.61911e-08
-5.40077e-08
9.6734e-08
-2.80224e-08
8.63256e-08
-8.47829e-09
6.31906e-08
2.59801e-08
5.0397e-09
1.21295e-08
1.59953e-08
2.80247e-08
2.96098e-08
3.58742e-08
4.32771e-08
3.66321e-08
5.48795e-08
3.15722e-08
6.27748e-08
2.20511e-08
6.57872e-08
9.42388e-09
6.32092e-08
-5.00512e-09
5.4792e-08
-2.00193e-08
4.07169e-08
-3.4515e-08
2.15545e-08
-4.75168e-08
-1.78643e-09
-5.8193e-08
-2.81198e-08
-6.58717e-08
-5.60533e-08
-7.00548e-08
-8.40673e-08
-7.0435e-08
-1.10598e-07
-6.69023e-08
-1.34122e-07
-5.95494e-08
-1.53239e-07
-4.86715e-08
-1.6676e-07
-3.47625e-08
-1.73779e-07
-1.85085e-08
-1.73744e-07
-7.77114e-10
-1.66523e-07
1.73942e-08
-1.52451e-07
3.48088e-08
-1.32367e-07
5.01356e-08
-1.07634e-07
6.19375e-08
-8.01482e-08
6.87075e-08
-5.23398e-08
6.89261e-08
-2.71829e-08
6.1165e-08
-8.2514e-09
4.42645e-08
1.77304e-08
4.75418e-09
7.37138e-09
1.50759e-08
1.77077e-08
2.7939e-08
2.30114e-08
4.09058e-08
2.36657e-08
5.19757e-08
2.05003e-08
5.95935e-08
1.44322e-08
6.26516e-08
6.36751e-09
6.04877e-08
-2.8387e-09
5.28713e-08
-1.24017e-08
3.99755e-08
-2.16193e-08
2.23353e-08
-2.98772e-08
7.97318e-10
-3.66556e-08
-2.35382e-08
-4.15365e-08
-4.93827e-08
-4.42106e-08
-7.53316e-08
-4.44863e-08
-9.99393e-08
-4.22951e-08
-1.21796e-07
-3.76931e-08
-1.39605e-07
-3.08625e-08
-1.52259e-07
-2.21088e-08
-1.58911e-07
-1.18576e-08
-1.59038e-07
-6.49958e-10
-1.52508e-07
1.08629e-08
-1.39622e-07
2.19222e-08
-1.2116e-07
3.1673e-08
-9.84008e-08
3.91781e-08
-7.31306e-08
4.34368e-08
-4.76316e-08
4.34252e-08
-2.4661e-08
3.81962e-08
-7.47137e-09
2.70693e-08
1.02602e-08
4.00981e-09
3.35946e-09
1.28539e-08
8.865e-09
2.40179e-08
1.18488e-08
3.53734e-08
1.23116e-08
4.51477e-08
1.07259e-08
5.19631e-08
7.61447e-09
5.48509e-08
3.47767e-09
5.32426e-08
-1.23054e-09
4.69475e-08
-6.10553e-09
3.61215e-08
-1.07921e-08
2.12283e-08
-1.49832e-08
2.99414e-09
-1.84208e-08
-1.76429e-08
-2.08988e-08
-3.9588e-08
-2.22649e-08
-6.16492e-08
-2.24245e-08
-8.26004e-08
-2.13434e-08
-1.01244e-07
-1.90487e-08
-1.16477e-07
-1.5629e-08
-1.27351e-07
-1.1234e-08
-1.33136e-07
-6.07296e-09
-1.33373e-07
-4.12921e-10
-1.27932e-07
5.42199e-09
-1.17058e-07
1.10489e-08
-1.01414e-07
1.60294e-08
-8.2106e-08
1.9871e-08
-6.0701e-08
2.2031e-08
-3.92115e-08
2.19339e-08
-2.005e-08
1.90406e-08
-5.96391e-09
1.29806e-08
4.29894e-09
2.63599e-09
7.22557e-10
8.93928e-09
2.56272e-09
1.71732e-08
3.61513e-09
2.56767e-08
3.81026e-09
3.3067e-08
3.33885e-09
3.82918e-08
2.39126e-09
4.06318e-08
1.13723e-09
3.96797e-08
-2.79336e-10
3.531e-08
-1.73645e-09
2.76481e-08
-3.13045e-09
1.70379e-08
-4.37311e-09
4.00791e-09
-5.39088e-09
-1.07656e-08
-6.1254e-09
-2.64972e-08
-6.53355e-09
-4.23337e-08
-6.58839e-09
-5.73974e-08
-6.28008e-09
-7.08304e-08
-5.61599e-09
-8.18388e-08
-4.62086e-09
-8.97365e-08
-3.33666e-09
-9.39876e-08
-1.82234e-09
-9.42478e-08
-1.53546e-10
-9.04036e-08
1.57716e-09
-8.26132e-08
3.25822e-09
-7.13427e-08
4.75863e-09
-5.73986e-08
5.92588e-09
-4.19517e-08
6.58295e-09
-2.65442e-08
6.5278e-09
-1.30652e-08
5.55648e-09
-3.59477e-09
3.50745e-09
7.09339e-10
7.23313e-10
3.286e-09
6.90009e-09
1.07091e-08
1.40476e-08
1.64395e-08
1.75777e-08
1.7299e-08
1.5563e-08
1.24329e-08
8.06024e-09
2.6698e-09
-3.45517e-09
-9.98834e-09
-1.65764e-08
-2.28561e-08
-2.84717e-08
-3.30921e-08
-3.64286e-08
-3.82508e-08
-3.84041e-08
-3.68266e-08
-3.3568e-08
-2.88093e-08
-2.28841e-08
-1.63014e-08
-9.76866e-09
-4.21361e-09
-7.06135e-10
)
;

boundaryField
{
    floor
    {
        type            calculated;
        value           uniform 0;
    }
    ceiling
    {
        type            calculated;
        value           nonuniform List<scalar> 
30
(
-2.11758e-22
-2.11758e-22
0
0
-2.11758e-22
2.11758e-22
2.11758e-22
2.11758e-22
-2.11758e-22
2.11758e-22
0
-2.11758e-22
0
0
2.11758e-22
0
-2.11758e-22
2.11758e-22
2.11758e-22
0
0
2.11758e-22
0
0
2.11758e-22
2.11758e-22
0
2.11758e-22
-2.11758e-22
-2.11758e-22
)
;
    }
    fixedWalls
    {
        type            calculated;
        value           uniform 0;
    }
    frontAndBack
    {
        type            empty;
    }
}


// ************************************************************************* //
