/*--------------------------------*- C++ -*----------------------------------*\
| =========                 |                                                 |
| \\      /  F ield         | OpenFOAM: The Open Source CFD Toolbox           |
|  \\    /   O peration     | Version:  2412                                  |
|   \\  /    A nd           | Website:  www.openfoam.com                      |
|    \\/     M anipulation  |                                                 |
\*---------------------------------------------------------------------------*/
FoamFile
{
    version     2.0;
    format      ascii;
    arch        "LSB;label=32;scalar=64";
    class       volVectorField;
    location    "900";
    object      U;
}
// * * * * * * * * * * * * * * * * * * * * * * * * * * * * * * * * * * * * * //

dimensions      [0 1 -1 0 0 0 0];

internalField   nonuniform List<vector> 
900
(
(-2.28277e-07 -1.0968e-07 0)
(-5.95689e-06 1.19288e-06 0)
(-1.66804e-05 1.97584e-06 0)
(-2.9452e-05 2.15991e-06 0)
(-4.17118e-05 1.92757e-06 0)
(-5.16263e-05 1.42532e-06 0)
(-5.79116e-05 7.67122e-07 0)
(-5.97842e-05 3.39382e-08 0)
(-5.68815e-05 -7.12654e-07 0)
(-4.92114e-05 -1.42213e-06 0)
(-3.71077e-05 -2.05253e-06 0)
(-2.11831e-05 -2.5691e-06 0)
(-2.28127e-06 -2.94461e-06 0)
(1.85754e-05 -3.15885e-06 0)
(4.02403e-05 -3.19902e-06 0)
(6.15037e-05 -3.06061e-06 0)
(8.11541e-05 -2.74754e-06 0)
(9.80417e-05 -2.27204e-06 0)
(0.00011114 -1.65451e-06 0)
(0.000119604 -9.23185e-07 0)
(0.00012283 -1.13782e-07 0)
(0.000120501 7.30737e-07 0)
(0.000112636 1.5615e-06 0)
(9.96344e-05 2.31833e-06 0)
(8.23305e-05 2.9234e-06 0)
(6.20659e-05 3.27224e-06 0)
(4.07726e-05 3.22086e-06 0)
(2.10298e-05 2.59172e-06 0)
(6.02407e-06 1.22537e-06 0)
(-5.15268e-07 -5.56456e-07 0)
(-1.50112e-06 5.57715e-06 0)
(-1.72605e-05 1.62183e-05 0)
(-4.25741e-05 2.23523e-05 0)
(-7.14417e-05 2.35946e-05 0)
(-9.87809e-05 2.08522e-05 0)
(-0.000120686 1.51716e-05 0)
(-0.000134258 7.52866e-06 0)
(-0.000137626 -1.21954e-06 0)
(-0.000129867 -1.03199e-05 0)
(-0.000110933 -1.9105e-05 0)
(-8.15573e-05 -2.69929e-05 0)
(-4.31607e-05 -3.34911e-05 0)
(2.26759e-06 -3.82042e-05 0)
(5.22927e-05 -4.084e-05 0)
(0.000104174 -4.12175e-05 0)
(0.000155014 -3.92741e-05 0)
(0.000201913 -3.50683e-05 0)
(0.000242126 -2.87787e-05 0)
(0.000273213 -2.07008e-05 0)
(0.00029319 -1.12416e-05 0)
(0.000300661 -9.10913e-07 0)
(0.000294942 9.68828e-06 0)
(0.000276171 1.98705e-05 0)
(0.000245397 2.88544e-05 0)
(0.000204681 3.57483e-05 0)
(0.00015718 3.95398e-05 0)
(0.00010721 3.91102e-05 0)
(6.01737e-05 3.33778e-05 0)
(2.24945e-05 2.17277e-05 0)
(1.39862e-06 6.03281e-06 0)
(-2.37712e-06 1.7306e-05 0)
(-2.51502e-05 4.2152e-05 0)
(-5.9856e-05 5.53813e-05 0)
(-9.86013e-05 5.75063e-05 0)
(-0.000134882 5.04231e-05 0)
(-0.000163661 3.63216e-05 0)
(-0.000181101 1.73692e-05 0)
(-0.000184663 -4.4106e-06 0)
(-0.000173059 -2.71614e-05 0)
(-0.00014618 -4.91978e-05 0)
(-0.000105002 -6.90284e-05 0)
(-5.1457e-05 -8.53804e-05 0)
(1.17246e-05 -9.72268e-05 0)
(8.118e-05 -0.000103806 0)
(0.000153117 -0.00010465 0)
(0.000223522 -9.95964e-05 0)
(0.00028838 -8.87994e-05 0)
(0.000343894 -7.27253e-05 0)
(0.0003867 -5.21443e-05 0)
(0.000414076 -2.81137e-05 0)
(0.000424132 -1.95413e-06 0)
(0.000415973 2.47801e-05 0)
(0.000389846 5.03339e-05 0)
(0.000347253 7.27493e-05 0)
(0.000291048 8.98719e-05 0)
(0.000225489 9.93791e-05 0)
(0.000156263 9.88722e-05 0)
(9.02958e-05 8.61665e-05 0)
(3.59056e-05 5.99367e-05 0)
(2.92884e-06 2.17638e-05 0)
(-2.77901e-06 3.21657e-05 0)
(-2.93604e-05 7.44054e-05 0)
(-6.93507e-05 9.57541e-05 0)
(-0.000113555 9.84781e-05 0)
(-0.000154611 8.5809e-05 0)
(-0.000186865 6.12768e-05 0)
(-0.000205982 2.84186e-05 0)
(-0.000209069 -9.37243e-06 0)
(-0.000194635 -4.8912e-05 0)
(-0.000162545 -8.72676e-05 0)
(-0.000113913 -0.000121819 0)
(-5.09714e-05 -0.000150317 0)
(2.31081e-05 -0.000170937 0)
(0.000104407 -0.000182326 0)
(0.000188503 -0.000183652 0)
(0.000270711 -0.000174629 0)
(0.000346343 -0.000155532 0)
(0.00041097 -0.000127191 0)
(0.000460679 -9.09784e-05 0)
(0.00049231 -4.87708e-05 0)
(0.000503683 -2.90739e-06 0)
(0.000493786 4.38703e-05 0)
(0.000462936 8.84842e-05 0)
(0.000412896 0.000127547 0)
(0.000346963 0.000157407 0)
(0.000269995 0.000174232 0)
(0.000188426 0.000174167 0)
(0.000110061 0.000153679 0)
(4.45305e-05 0.000110176 0)
(3.79156e-06 4.34433e-05 0)
(-2.8546e-06 4.84011e-05 0)
(-3.07737e-05 0.000109609 0)
(-7.27986e-05 0.00013959 0)
(-0.000119092 0.000142688 0)
(-0.000161873 0.000123705 0)
(-0.000195206 8.76438e-05 0)
(-0.00021455 3.95084e-05 0)
(-0.000216862 -1.58429e-05 0)
(-0.000200575 -7.37918e-05 0)
(-0.000165545 -0.000130046 0)
(-0.000112956 -0.000180744 0)
(-4.51847e-05 -0.000222555 0)
(3.43873e-05 -0.000252768 0)
(0.000121573 -0.00026937 0)
(0.000211644 -0.000271121 0)
(0.000299591 -0.0002576 0)
(0.000380399 -0.000229214 0)
(0.000449333 -0.000187204 0)
(0.000502214 -0.000133611 0)
(0.000535673 -7.12255e-05 0)
(0.000547393 -3.51693e-06 0)
(0.000536304 6.54622e-05 0)
(0.000502753 0.000131181 0)
(0.000448621 0.0001887 0)
(0.0003774 0.000232762 0)
(0.000294217 0.000257921 0)
(0.000205861 0.000258734 0)
(0.000120622 0.000230075 0)
(4.89448e-05 0.000167598 0)
(4.14726e-06 6.84816e-05 0)
(-2.73646e-06 6.47425e-05 0)
(-3.02338e-05 0.000145295 0)
(-7.1843e-05 0.000184065 0)
(-0.000117675 0.000187439 0)
(-0.000159912 0.000161865 0)
(-0.000192599 0.000113883 0)
(-0.000211189 5.00014e-05 0)
(-0.000212643 -2.34254e-05 0)
(-0.000195395 -0.000100313 0)
(-0.000159309 -0.000174975 0)
(-0.000105581 -0.000242271 0)
(-3.66133e-05 -0.000297753 0)
(4.41803e-05 -0.000337789 0)
(0.000132567 -0.000359679 0)
(0.000223768 -0.000361764 0)
(0.000312714 -0.000343476 0)
(0.000394336 -0.000305364 0)
(0.000463845 -0.000249093 0)
(0.000517016 -0.000177401 0)
(0.000550444 -9.40276e-05 0)
(0.000561791 -3.6112e-06 0)
(0.000549976 8.84406e-05 0)
(0.000515351 0.000176101 0)
(0.000459808 0.000252838 0)
(0.000386864 0.000311747 0)
(0.000301685 0.000345715 0)
(0.000211138 0.00034762 0)
(0.000123674 0.000310572 0)
(5.00615e-05 0.000228193 0)
(4.16481e-06 9.48362e-05 0)
(-2.51179e-06 8.0354e-05 0)
(-2.83975e-05 0.000179676 0)
(-6.78173e-05 0.000227041 0)
(-0.000111297 0.000230662 0)
(-0.000151307 0.000198586 0)
(-0.000182091 0.000138866 0)
(-0.000199262 5.94944e-05 0)
(-0.000199891 -3.17008e-05 0)
(-0.000182473 -0.000127196 0)
(-0.000146885 -0.000219935 0)
(-9.42927e-05 -0.000303519 0)
(-2.70228e-05 -0.000372398 0)
(5.1612e-05 -0.000422031 0)
(0.000137509 -0.000449042 0)
(0.000226036 -0.000451352 0)
(0.000312276 -0.00042825 0)
(0.000391313 -0.000380424 0)
(0.000458501 -0.000309958 0)
(0.000509741 -0.00022028 0)
(0.000541732 -0.000116065 0)
(0.000552201 -3.10837e-06 0)
(0.000540099 0.000111847 0)
(0.000505761 0.000221298 0)
(0.000451025 0.000317139 0)
(0.000379302 0.000390834 0)
(0.000295625 0.000433604 0)
(0.000206708 0.000436614 0)
(0.000120864 0.000391146 0)
(4.87209e-05 0.000288724 0)
(3.96947e-06 0.000120996 0)
(-2.23121e-06 9.47029e-05 0)
(-2.57263e-05 0.000211525 0)
(-6.1718e-05 0.000266986 0)
(-0.000101487 0.000270852 0)
(-0.000138048 0.00023263 0)
(-0.000166029 0.000161797 0)
(-0.000181335 6.77581e-05 0)
(-0.000181236 -4.0261e-05 0)
(-0.000164334 -0.000153369 0)
(-0.00013052 -0.000263209 0)
(-8.08886e-05 -0.00036219 0)
(-1.76199e-05 -0.000443714 0)
(5.61857e-05 -0.000502378 0)
(0.000136692 -0.000534161 0)
(0.000219566 -0.000536588 0)
(0.000300209 -0.000508808 0)
(0.000374021 -0.000451642 0)
(0.000436654 -0.000367572 0)
(0.000484271 -0.000260679 0)
(0.000513778 -0.000136531 0)
(0.000523044 -2.01926e-06 0)
(0.000511083 0.000134841 0)
(0.000478209 0.000265137 0)
(0.000426143 0.000379259 0)
(0.000358099 0.000467103 0)
(0.000278827 0.000518275 0)
(0.000194686 0.000522265 0)
(0.000113576 0.000468565 0)
(4.55819e-05 0.000346692 0)
(3.64129e-06 0.000145873 0)
(-1.92308e-06 0.000107458 0)
(-2.2533e-05 0.000240022 0)
(-5.42615e-05 0.000302835 0)
(-8.93763e-05 0.000306938 0)
(-0.000121628 0.000263116 0)
(-0.000146181 0.000182131 0)
(-0.000159342 7.46797e-05 0)
(-0.00015865 -4.87263e-05 0)
(-0.000142849 -0.000177939 0)
(-0.000111845 -0.000303408 0)
(-6.66349e-05 -0.000416449 0)
(-9.18835e-06 -0.000509501 0)
(5.76907e-05 -0.000576372 0)
(0.000130539 -0.000612451 0)
(0.000205443 -0.000614896 0)
(0.00027825 -0.00058273 0)
(0.000344803 -0.000516892 0)
(0.000401175 -0.00042023 0)
(0.000443894 -0.000297424 0)
(0.000470161 -0.000154858 0)
(0.000478044 -4.32546e-07 0)
(0.000466647 0.000156665 0)
(0.000436254 0.000306221 0)
(0.000388432 0.00043723 0)
(0.00032611 0.000538126 0)
(0.000253631 0.000597002 0)
(0.000176819 0.000601778 0)
(0.000102917 0.000540277 0)
(4.11371e-05 0.000400195 0)
(3.23041e-06 0.000168686 0)
(-1.60268e-06 0.000118419 0)
(-1.90256e-05 0.000264637 0)
(-4.5952e-05 0.000333876 0)
(-7.57864e-05 0.000338191 0)
(-0.000103154 0.000289444 0)
(-0.000123869 0.000199512 0)
(-0.000134728 8.02293e-05 0)
(-0.000133597 -5.67532e-05 0)
(-0.000119389 -0.000200173 0)
(-9.20313e-05 -0.000339422 0)
(-5.2393e-05 -0.000464847 0)
(-2.19139e-06 -0.000568038 0)
(5.61341e-05 -0.000642102 0)
(0.000119575 -0.00068191 0)
(0.000184729 -0.000684293 0)
(0.000247989 -0.000648161 0)
(0.000305742 -0.000574558 0)
(0.00035457 -0.000466652 0)
(0.000391453 -0.000329654 0)
(0.000413952 -0.00017067 0)
(0.00042038 1.50397e-06 0)
(0.000409953 0.000176639 0)
(0.000382919 0.000343361 0)
(0.000340652 0.00048941 0)
(0.000285729 0.000601907 0)
(0.000221972 0.00066758 0)
(0.000154517 0.000672932 0)
(8.9748e-05 0.000604301 0)
(3.57496e-05 0.000447802 0)
(2.76787e-06 0.000188873 0)
(-1.27842e-06 0.000127472 0)
(-1.53428e-05 0.000285049 0)
(-3.71407e-05 0.000359659 0)
(-6.13061e-05 0.000364143 0)
(-8.34315e-05 0.000311231 0)
(-0.000100063 0.000213732 0)
(-0.000108556 8.4436e-05 0)
(-0.000107147 -6.40363e-05 0)
(-9.49434e-05 -0.000219475 0)
(-7.18903e-05 -0.000370375 0)
(-3.87157e-05 -0.000506258 0)
(3.15214e-06 -0.000617997 0)
(5.16885e-05 -0.000698104 0)
(0.000104401 -0.000741011 0)
(0.000158471 -0.000743274 0)
(0.000210908 -0.000703705 0)
(0.000258718 -0.000623433 0)
(0.000299067 -0.0005059 0)
(0.000329447 -0.000356763 0)
(0.000347828 -0.000183743 0)
(0.000352806 3.60552e-06 0)
(0.000343723 0.000194164 0)
(0.000320786 0.000375559 0)
(0.000285144 0.000534457 0)
(0.00023896 0.00065684 0)
(0.000185445 0.000728258 0)
(0.000128919 0.000733995 0)
(7.47454e-05 0.000659126 0)
(2.9689e-05 0.000488451 0)
(2.27262e-06 0.000206028 0)
(-9.55079e-07 0.000134561 0)
(-1.15771e-05 0.000301076 0)
(-2.80721e-05 0.000379922 0)
(-4.63546e-05 0.000384515 0)
(-6.30419e-05 0.000328259 0)
(-7.54709e-05 0.00022469 0)
(-8.16007e-05 8.73679e-05 0)
(-8.00729e-05 -7.03108e-05 0)
(-7.02047e-05 -0.000235373 0)
(-5.19628e-05 -0.000395593 0)
(-2.59198e-05 -0.000539831 0)
(6.81031e-06 -0.000658383 0)
(4.46538e-05 -0.000743289 0)
(8.5679e-05 -0.000788629 0)
(0.000127702 -0.000790737 0)
(0.000168404 -0.000748345 0)
(0.000205463 -0.000662653 0)
(0.00023668 -0.000537315 0)
(0.000260105 -0.000378348 0)
(0.000274157 -0.000193962 0)
(0.000277736 5.67368e-06 0)
(0.000270327 0.000208723 0)
(0.000252084 0.000402003 0)
(0.000223907 0.000571299 0)
(0.000187494 0.000701668 0)
(0.000145374 0.000777691 0)
(0.000100949 0.00078366 0)
(5.84415e-05 0.000703633 0)
(2.31592e-05 0.000521367 0)
(1.75597e-06 0.000219868 0)
(-6.35299e-07 0.000139665 0)
(-7.79135e-06 0.000312637 0)
(-1.89169e-05 0.000394537 0)
(-3.12297e-05 0.000399175 0)
(-4.24035e-05 0.000340429 0)
(-5.06017e-05 0.000232368 0)
(-5.44171e-05 8.91169e-05 0)
(-5.29176e-05 -7.53532e-05 0)
(-4.56423e-05 -0.000247505 0)
(-3.25809e-05 -0.000414578 0)
(-1.41411e-05 -0.000564949 0)
(8.89452e-06 -0.000688488 0)
(3.54276e-05 -0.000776889 0)
(6.41169e-05 -0.000823973 0)
(9.34469e-05 -0.000825914 0)
(0.000121809 -0.000781382 0)
(0.000147588 -0.000691627 0)
(0.000169255 -0.000560458 0)
(0.00018545 -0.000394156 0)
(0.000195064 -0.000201289 0)
(0.000197323 7.52036e-06 0)
(0.000191855 0.000219901 0)
(0.000178762 0.000422063 0)
(0.00015867 0.000599131 0)
(0.000132777 0.000735457 0)
(0.000102873 0.000814894 0)
(7.13704e-05 0.000820986 0)
(4.12662e-05 0.000737029 0)
(1.63201e-05 0.000546017 0)
(1.22535e-06 0.000230202 0)
(-3.20695e-07 0.000142788 0)
(-4.02854e-06 0.000319721 0)
(-9.79428e-06 0.000403477 0)
(-1.6142e-05 0.000408092 0)
(-2.18144e-05 0.000347734 0)
(-2.58177e-05 0.000236805 0)
(-2.7395e-05 8.9786e-05 0)
(-2.60515e-05 -7.89829e-05 0)
(-2.15543e-05 -0.000255606 0)
(-1.3917e-05 -0.000426987 0)
(-3.37715e-06 -0.000581199 0)
(9.62554e-06 -0.000707845 0)
(2.44821e-05 -0.000798405 0)
(4.04574e-05 -0.00084654 0)
(5.67242e-05 -0.000848319 0)
(7.24039e-05 -0.000802379 0)
(8.66126e-05 -0.000709995 0)
(9.85089e-05 -0.000575073 0)
(0.00010734 -0.000404053 0)
(0.000112488 -0.000205731 0)
(0.000113509 8.98812e-06 0)
(0.000110182 0.000227391 0)
(0.00010255 0.000435294 0)
(9.09539e-05 0.00061739 0)
(7.60644e-05 0.000757571 0)
(5.88967e-05 0.000839207 0)
(4.08284e-05 0.000845352 0)
(2.35774e-05 0.000758804 0)
(9.30384e-06 0.000562067 0)
(6.87696e-07 0.000236916 0)
(-1.23204e-08 0.000143953 0)
(-3.18576e-07 0.000322367 0)
(-7.88266e-07 0.000406784 0)
(-1.24125e-06 0.000411312 0)
(-1.48604e-06 0.000350229 0)
(-1.37458e-06 0.000238074 0)
(-8.03204e-07 8.94777e-05 0)
(2.82868e-07 -8.10652e-05 0)
(1.88818e-06 -0.00025951 0)
(3.97495e-06 -0.000432622 0)
(6.47807e-06 -0.000588355 0)
(9.30629e-06 -0.00071621 0)
(1.2345e-05 -0.000807586 0)
(1.54693e-05 -0.000856079 0)
(1.85459e-05 -0.00085772 0)
(2.14336e-05 -0.000811131 0)
(2.39862e-05 -0.000717595 0)
(2.60585e-05 -0.000581052 0)
(2.75117e-05 -0.000408002 0)
(2.82199e-05 -0.000207324 0)
(2.80782e-05 9.96043e-06 0)
(2.70157e-05 0.000230996 0)
(2.50132e-05 0.000441428 0)
(2.21207e-05 0.000625752 0)
(1.847e-05 0.000767648 0)
(1.4284e-05 0.000850264 0)
(9.88394e-06 0.000856423 0)
(5.6841e-06 0.000768692 0)
(2.22493e-06 0.000569349 0)
(1.51094e-07 0.00023996 0)
(2.8938e-07 0.000143194 0)
(3.31814e-06 0.000320646 0)
(8.04184e-06 0.00040455 0)
(1.33653e-05 0.000408935 0)
(1.84289e-05 0.000348015 0)
(2.25458e-05 0.000236271 0)
(2.51734e-05 8.8282e-05 0)
(2.59321e-05 -8.15166e-05 0)
(2.4603e-05 -0.000259141 0)
(2.11256e-05 -0.000431418 0)
(1.56053e-05 -0.000586363 0)
(8.29864e-06 -0.000713542 0)
(-4.16884e-07 -0.000804402 0)
(-1.00617e-05 -0.000852574 0)
(-2.00821e-05 -0.000854113 0)
(-2.98878e-05 -0.000807646 0)
(-3.88926e-05 -0.000714446 0)
(-4.65506e-05 -0.000578427 0)
(-5.23912e-05 -0.000406045 0)
(-5.60506e-05 -0.000206128 0)
(-5.72982e-05 1.03626e-05 0)
(-5.60548e-05 0.000230626 0)
(-5.24004e-05 0.000440359 0)
(-4.65767e-05 0.000624102 0)
(-3.89889e-05 0.000765573 0)
(-3.02053e-05 0.000847957 0)
(-2.09594e-05 0.000854109 0)
(-1.21383e-05 0.00076663 0)
(-4.81599e-06 0.000567835 0)
(-3.77463e-07 0.000239326 0)
(5.84454e-07 0.000140555 0)
(6.86695e-06 0.000314659 0)
(1.66512e-05 0.000396905 0)
(2.75952e-05 0.000401099 0)
(3.78134e-05 0.000341221 0)
(4.58063e-05 0.000231504 0)
(5.04021e-05 8.62695e-05 0)
(5.07988e-05 -8.03096e-05 0)
(4.65637e-05 -0.000254518 0)
(3.76175e-05 -0.000423441 0)
(2.42314e-05 -0.000575338 0)
(7.00102e-06 -0.000699991 0)
(-1.32139e-05 -0.000789032 0)
(-3.5342e-05 -0.000836223 0)
(-5.81603e-05 -0.000837702 0)
(-8.03664e-05 -0.000792124 0)
(-0.00010066 -0.000700734 0)
(-0.00011782 -0.000567354 0)
(-0.000130782 -0.000398303 0)
(-0.000138701 -0.000202219 0)
(-0.000141021 1.01627e-05 0)
(-0.000137513 0.000226295 0)
(-0.000128315 0.000432145 0)
(-0.000113952 0.000612533 0)
(-9.53532e-05 0.000751466 0)
(-7.3858e-05 0.000832422 0)
(-5.12317e-05 0.000838548 0)
(-2.96355e-05 0.000752742 0)
(-1.1731e-05 0.00055761 0)
(-8.95962e-07 0.000235047 0)
(8.73054e-07 0.000136083 0)
(1.0315e-05 0.000304524 0)
(2.49996e-05 0.000384008 0)
(4.13748e-05 0.000387974 0)
(5.65634e-05 0.000329999 0)
(6.82865e-05 0.00022388 0)
(7.47707e-05 8.34861e-05 0)
(7.48091e-05 -7.74733e-05 0)
(6.77673e-05 -0.00024575 0)
(5.35543e-05 -0.000408883 0)
(3.26013e-05 -0.000555544 0)
(5.82668e-06 -0.000675886 0)
(-2.54459e-05 -0.000761847 0)
(-5.95745e-05 -0.00080742 0)
(-9.46936e-05 -0.000808884 0)
(-0.00012882 -0.000764941 0)
(-0.00015997 -0.000676785 0)
(-0.000186276 -0.000548096 0)
(-0.0002061 -0.000384953 0)
(-0.000218141 -0.000195677 0)
(-0.000221523 9.38372e-06 0)
(-0.000215873 0.000218129 0)
(-0.000201383 0.000417004 0)
(-0.000178844 0.000591342 0)
(-0.000149682 0.000725679 0)
(-0.000115974 0.000804033 0)
(-8.04715e-05 0.000810102 0)
(-4.65604e-05 0.000727334 0)
(-1.84379e-05 0.000538886 0)
(-1.40641e-06 0.000227204 0)
(1.15519e-06 0.000129834 0)
(1.36475e-05 0.000290379 0)
(3.30419e-05 0.000366044 0)
(5.46227e-05 0.000369758 0)
(7.45645e-05 0.000314522 0)
(8.9853e-05 0.000213513 0)
(9.81528e-05 7.99567e-05 0)
(9.78764e-05 -7.30911e-05 0)
(8.82001e-05 -0.000233036 0)
(6.90283e-05 -0.000388053 0)
(4.09489e-05 -0.000527395 0)
(5.18126e-06 -0.000641725 0)
(-3.65162e-05 -0.000723405 0)
(-8.19629e-05 -0.000766748 0)
(-0.000128688 -0.000768233 0)
(-0.000174066 -0.000726627 0)
(-0.000215474 -0.000643058 0)
(-0.000250437 -0.000521003 0)
(-0.000276781 -0.000366216 0)
(-0.000292767 -0.000186575 0)
(-0.000297222 8.11448e-06 0)
(-0.000289633 0.000206373 0)
(-0.000270234 0.00039533 0)
(-0.000240064 0.000561044 0)
(-0.000201008 0.000688808 0)
(-0.000155829 0.000763421 0)
(-0.000108201 0.000769373 0)
(-6.26561e-05 0.000690914 0)
(-2.48466e-05 0.000512013 0)
(-1.90613e-06 0.000215936 0)
(1.43063e-06 0.000121868 0)
(1.68436e-05 0.000272384 0)
(4.07158e-05 0.00034324 0)
(6.72282e-05 0.000346689 0)
(9.16632e-05 0.000294991 0)
(0.000110325 0.000200525 0)
(0.000120368 7.56889e-05 0)
(0.000119858 -6.72977e-05 0)
(0.000107797 -0.000216664 0)
(8.40858e-05 -0.000361386 0)
(4.94657e-05 -0.000491458 0)
(5.43516e-06 -0.000598186 0)
(-4.58514e-05 -0.000674462 0)
(-0.00010172 -0.000715 0)
(-0.000159143 -0.000716529 0)
(-0.000214907 -0.000677902 0)
(-0.000265799 -0.000600164 0)
(-0.000308788 -0.000486541 0)
(-0.000341207 -0.000342376 0)
(-0.000360918 -0.000174991 0)
(-0.000366467 6.49248e-06 0)
(-0.000357211 0.000191382 0)
(-0.000333419 0.000367675 0)
(-0.000296347 0.000522354 0)
(-0.000248293 0.000641685 0)
(-0.000192639 0.000711462 0)
(-0.000133892 0.000717199 0)
(-7.76331e-05 0.000644194 0)
(-3.0846e-05 0.000477483 0)
(-2.38205e-06 0.000201433 0)
(1.69886e-06 0.000112259 0)
(1.98705e-05 0.000250739 0)
(4.79263e-05 0.000315875 0)
(7.90237e-05 0.000319063 0)
(0.000107629 0.000271652 0)
(0.000129431 0.000185056 0)
(0.000141132 7.06735e-05 0)
(0.000140502 -6.02817e-05 0)
(0.000126385 -0.000197021 0)
(9.8678e-05 -0.000329462 0)
(5.82617e-05 -0.00044848 0)
(6.89098e-06 -0.00054615 0)
(-5.29273e-05 -0.000615995 0)
(-0.000118084 -0.000653198 0)
(-0.000185058 -0.000654781 0)
(-0.000250113 -0.000619702 0)
(-0.000309512 -0.000548906 0)
(-0.000359731 -0.000445326 0)
(-0.000397661 -0.000313819 0)
(-0.000420811 -0.00016105 0)
(-0.000427475 4.67039e-06 0)
(-0.000416888 0.000173586 0)
(-0.000389344 0.000334725 0)
(-0.000346284 0.000476176 0)
(-0.000290365 0.000585362 0)
(-0.000225503 0.000649274 0)
(-0.000156932 0.000654658 0)
(-9.11437e-05 0.000588087 0)
(-3.63022e-05 0.000435924 0)
(-2.82252e-06 0.000183914 0)
(1.95799e-06 0.000101101 0)
(2.26728e-05 0.000225704 0)
(5.45216e-05 0.000284309 0)
(8.97457e-05 0.000287259 0)
(0.000122103 0.000244815 0)
(0.000146749 0.000167274 0)
(0.000159998 6.48851e-05 0)
(0.000159381 -5.2291e-05 0)
(0.000143618 -0.000174594 0)
(0.000112597 -0.00029301 0)
(6.73147e-05 -0.000399403 0)
(9.7477e-06 -0.000486727 0)
(-5.72931e-05 -0.000549224 0)
(-0.00013033 -0.000582611 0)
(-0.000205427 -0.000584241 0)
(-0.000278408 -0.000553186 0)
(-0.000345094 -0.000490282 0)
(-0.000401541 -0.000398128 0)
(-0.000444269 -0.000281034 0)
(-0.000470481 -0.000144918 0)
(-0.000478258 2.82626e-06 0)
(-0.000466725 0.000153506 0)
(-0.000436192 0.000297325 0)
(-0.000388251 0.000423629 0)
(-0.000325852 0.000521159 0)
(-0.000253349 0.000578271 0)
(-0.000176571 0.000583126 0)
(-0.000102753 0.000523774 0)
(-4.10563e-05 0.000388149 0)
(-3.22932e-06 0.000163672 0)
(2.202e-06 8.85266e-05 0)
(2.51542e-05 0.000197632 0)
(6.02583e-05 0.000249023 0)
(9.89856e-05 0.000251776 0)
(0.000134531 0.00021489 0)
(0.000161626 0.000147404 0)
(0.000176277 5.83004e-05 0)
(0.000175825 -4.36299e-05 0)
(0.000158904 -0.000149978 0)
(0.000125404 -0.000252911 0)
(7.64048e-05 -0.000345372 0)
(1.40552e-05 -0.000421272 0)
(-5.85945e-05 -0.000475643 0)
(-0.000137776 -0.000504792 0)
(-0.000219232 -0.000506434 0)
(-0.000298444 -0.000479766 0)
(-0.000370894 -0.000425505 0)
(-0.000432311 -0.000345884 0)
(-0.000478923 -0.000244614 0)
(-0.000507695 -0.000126799 0)
(-0.000516533 1.17461e-06 0)
(-0.000504475 0.00013178 0)
(-0.000471837 0.00025651 0)
(-0.000420322 0.000366092 0)
(-0.000353102 0.000450715 0)
(-0.000274859 0.000500233 0)
(-0.000191864 0.000504359 0)
(-0.000111901 0.00045279 0)
(-4.48911e-05 0.000335238 0)
(-3.59392e-06 0.000141138 0)
(2.41686e-06 7.47289e-05 0)
(2.71501e-05 0.000167025 0)
(6.47522e-05 0.000210681 0)
(0.000106128 0.000213287 0)
(0.000144091 0.000182427 0)
(0.000173096 0.000125767 0)
(0.000188936 5.09285e-05 0)
(0.000188818 -3.46522e-05 0)
(0.000171321 -0.0001239 0)
(0.000136347 -0.000210247 0)
(8.50353e-05 -0.000287795 0)
(1.96439e-05 -0.000351462 0)
(-5.66213e-05 -0.000397118 0)
(-0.000139801 -0.000421692 0)
(-0.000225429 -0.00042329 0)
(-0.000308767 -0.000401242 0)
(-0.000385076 -0.000356136 0)
(-0.000449873 -0.000289822 0)
(-0.000499196 -0.000205375 0)
(-0.000529847 -0.000107036 0)
(-0.000539617 -1.21965e-07 0)
(-0.000527475 0.000109081 0)
(-0.000493737 0.00021344 0)
(-0.000440172 0.000305157 0)
(-0.000370092 0.000375957 0)
(-0.00028839 0.000417282 0)
(-0.000201605 0.000420491 0)
(-0.00011785 0.000377027 0)
(-4.74861e-05 0.000278546 0)
(-3.87489e-06 0.000116848 0)
(2.57661e-06 6.0007e-05 0)
(2.83959e-05 0.000134619 0)
(6.74171e-05 0.000170226 0)
(0.000110272 0.000172722 0)
(0.00014961 0.000148178 0)
(0.000179779 0.000102809 0)
(0.000196481 4.28163e-05 0)
(0.00019686 -2.57679e-05 0)
(0.000179475 -9.72421e-05 0)
(0.00014424 -0.000166354 0)
(9.23266e-05 -0.000228404 0)
(2.60353e-05 -0.000279357 0)
(-5.13756e-05 -0.000315938 0)
(-0.000135883 -0.000335719 0)
(-0.000222953 -0.0003372 0)
(-0.000307778 -0.000319851 0)
(-0.000385546 -0.000284133 0)
(-0.000451705 -0.000231499 0)
(-0.000502224 -0.000164377 0)
(-0.000533842 -8.61181e-05 0)
(-0.000544296 -9.39151e-07 0)
(-0.000532521 8.61553e-05 0)
(-0.000498816 0.000169457 0)
(-0.000444969 0.000242694 0)
(-0.00037434 0.000299179 0)
(-0.000291896 0.000331985 0)
(-0.000204262 0.000334143 0)
(-0.000119629 0.000298875 0)
(-4.84013e-05 0.000219866 0)
(-4.02403e-06 9.15149e-05 0)
(2.63778e-06 4.4829e-05 0)
(2.84914e-05 0.000101483 0)
(6.7402e-05 0.000128979 0)
(0.000110137 0.000131357 0)
(0.000149441 0.00011316 0)
(0.000179746 7.91469e-05 0)
(0.000196812 3.40836e-05 0)
(0.00019782 -1.74204e-05 0)
(0.00018135 -7.10439e-05 0)
(0.000147326 -0.000122846 0)
(9.69096e-05 -0.000169328 0)
(3.23645e-05 -0.0002075 0)
(-4.31219e-05 -0.00023494 0)
(-0.00012562 -0.000249855 0)
(-0.000210705 -0.000251136 0)
(-0.000293687 -0.00023839 0)
(-0.000369871 -0.000211951 0)
(-0.000434811 -0.000172889 0)
(-0.000484563 -0.000122985 0)
(-0.000515924 -6.47137e-05 0)
(-0.000526661 -1.19659e-06 0)
(-0.000515706 6.3842e-05 0)
(-0.000483331 0.000126124 0)
(-0.000431273 0.000180911 0)
(-0.000362827 0.000223116 0)
(-0.000282877 0.000247434 0)
(-0.000197929 0.000248531 0)
(-0.000115969 0.000221347 0)
(-4.70364e-05 0.000161546 0)
(-3.98292e-06 6.61722e-05 0)
(2.52033e-06 2.99452e-05 0)
(2.68545e-05 6.91667e-05 0)
(6.35392e-05 8.87695e-05 0)
(0.000103988 9.09409e-05 0)
(0.000141367 7.87836e-05 0)
(0.000170397 5.56765e-05 0)
(0.000187072 2.49867e-05 0)
(0.000188745 -1.0071e-05 0)
(0.000174093 -4.65207e-05 0)
(0.000143055 -8.16825e-05 0)
(9.67285e-05 -0.000113202 0)
(3.72278e-05 -0.00013908 0)
(-3.24843e-05 -0.000157706 0)
(-0.000108769 -0.000167887 0)
(-0.000187533 -0.000168885 0)
(-0.000264443 -0.000160437 0)
(-0.00033516 -0.000142761 0)
(-0.000395566 -0.000116562 0)
(-0.000442 -8.30196e-05 0)
(-0.000471477 -4.37768e-05 0)
(-0.000481897 -9.16395e-07 0)
(-0.000472235 4.3061e-05 0)
(-0.00044271 8.52549e-05 0)
(-0.000394921 0.000122418 0)
(-0.000331943 0.000151016 0)
(-0.000258372 0.000167315 0)
(-0.000180342 0.000167532 0)
(-0.000105328 0.000148159 0)
(-4.25838e-05 0.000106558 0)
(-3.62206e-06 4.22285e-05 0)
(2.10136e-06 1.64623e-05 0)
(2.27183e-05 3.9776e-05 0)
(5.43733e-05 5.19676e-05 0)
(8.96518e-05 5.37096e-05 0)
(0.000122519 4.68788e-05 0)
(0.000148279 3.35912e-05 0)
(0.000163405 1.59132e-05 0)
(0.000165605 -4.24193e-06 0)
(0.000153759 -2.51449e-05 0)
(0.000127841 -4.52646e-05 0)
(8.88137e-05 -6.32719e-05 0)
(3.8497e-05 -7.80472e-05 0)
(-2.05751e-05 -8.86943e-05 0)
(-8.53074e-05 -9.45504e-05 0)
(-0.000152225 -9.52044e-05 0)
(-0.000217655 -9.05082e-05 0)
(-0.000277913 -8.05808e-05 0)
(-0.0003295 -6.58096e-05 0)
(-0.000369294 -4.68472e-05 0)
(-0.000394731 -2.46048e-05 0)
(-0.000403987 -2.44168e-07 0)
(-0.000396144 2.48291e-05 0)
(-0.000371338 4.89639e-05 0)
(-0.000330905 7.0282e-05 0)
(-0.000277482 8.66963e-05 0)
(-0.000215074 9.59424e-05 0)
(-0.000149082 9.5667e-05 0)
(-8.61158e-05 8.37024e-05 0)
(-3.41803e-05 5.86019e-05 0)
(-2.77523e-06 2.15692e-05 0)
(1.16869e-06 6.21527e-06 0)
(1.52995e-05 1.64874e-05 0)
(3.83637e-05 2.21593e-05 0)
(6.46296e-05 2.31831e-05 0)
(8.93676e-05 2.05012e-05 0)
(0.000108944 1.51291e-05 0)
(0.000120706 7.99828e-06 0)
(0.000122982 -8.22449e-08 0)
(0.000114996 -8.41471e-06 0)
(9.67718e-05 -1.63998e-05 0)
(6.90368e-05 -2.35256e-05 0)
(3.31264e-05 -2.93648e-05 0)
(-9.12534e-06 -3.35776e-05 0)
(-5.54951e-05 -3.59133e-05 0)
(-0.000103494 -3.62156e-05 0)
(-0.000150492 -3.44273e-05 0)
(-0.000193854 -3.05921e-05 0)
(-0.00023107 -2.48544e-05 0)
(-0.000259886 -1.7459e-05 0)
(-0.00027844 -8.74946e-06 0)
(-0.000285381 8.33872e-07 0)
(-0.000279992 1.07528e-05 0)
(-0.000262313 2.03628e-05 0)
(-0.000233254 2.89124e-05 0)
(-0.000194703 3.55364e-05 0)
(-0.000149613 3.9248e-05 0)
(-0.000102061 3.89522e-05 0)
(-5.72104e-05 3.35845e-05 0)
(-2.12694e-05 2.24075e-05 0)
(-1.23356e-06 6.83713e-06 0)
(-9.33819e-08 6.42274e-07 0)
(4.94778e-06 2.05544e-06 0)
(1.48519e-05 2.77032e-06 0)
(2.65381e-05 2.91565e-06 0)
(3.76651e-05 2.67609e-06 0)
(4.65414e-05 2.19373e-06 0)
(5.20051e-05 1.5768e-06 0)
(5.33674e-05 9.01716e-07 0)
(5.03368e-05 2.24618e-07 0)
(4.29593e-05 -4.1158e-07 0)
(3.15675e-05 -9.72056e-07 0)
(1.6737e-05 -1.42833e-06 0)
(-7.59211e-07 -1.75836e-06 0)
(-1.99953e-05 -1.94578e-06 0)
(-3.99396e-05 -1.98009e-06 0)
(-5.95047e-05 -1.85736e-06 0)
(-7.75991e-05 -1.57998e-06 0)
(-9.31802e-05 -1.15678e-06 0)
(-0.000105305 -6.03154e-07 0)
(-0.000113184 5.89073e-08 0)
(-0.000116227 8.00847e-07 0)
(-0.000114096 1.58695e-06 0)
(-0.000106758 2.37087e-06 0)
(-9.4547e-05 3.09388e-06 0)
(-7.82185e-05 3.67971e-06 0)
(-5.90214e-05 4.02576e-06 0)
(-3.87638e-05 3.99261e-06 0)
(-1.99068e-05 3.41347e-06 0)
(-5.55291e-06 2.09144e-06 0)
(6.23144e-07 1.15562e-07 0)
)
;

boundaryField
{
    floor
    {
        type            noSlip;
    }
    ceiling
    {
        type            noSlip;
    }
    fixedWalls
    {
        type            noSlip;
    }
    frontAndBack
    {
        type            empty;
    }
}


// ************************************************************************* //
