/*--------------------------------*- C++ -*----------------------------------*\
| =========                 |                                                 |
| \\      /  F ield         | OpenFOAM: The Open Source CFD Toolbox           |
|  \\    /   O peration     | Version:  2412                                  |
|   \\  /    A nd           | Website:  www.openfoam.com                      |
|    \\/     M anipulation  |                                                 |
\*---------------------------------------------------------------------------*/
FoamFile
{
    version     2.0;
    format      ascii;
    arch        "LSB;label=32;scalar=64";
    class       volScalarField;
    location    "300";
    object      p;
}
// * * * * * * * * * * * * * * * * * * * * * * * * * * * * * * * * * * * * * //

dimensions      [0 2 -2 0 0 0 0];

internalField   nonuniform List<scalar> 
900
(
0
-1.53362e-05
-1.48151e-05
5.38365e-06
4.39681e-05
9.75963e-05
0.000161758
0.000231723
0.000302885
0.000371007
0.000432344
0.000483731
0.000522628
0.000547136
0.000556027
0.000548719
0.000525267
0.000486408
0.00043356
0.000368804
0.000294906
0.00021529
0.000133987
5.5513e-05
-1.5235e-05
-7.32414e-05
-0.000113825
-0.000133688
-0.000132025
-0.000113604
-0.0020837
-0.0021009
-0.00210094
-0.00208286
-0.00204921
-0.00200286
-0.00194753
-0.00188716
-0.00182565
-0.00176666
-0.00171347
-0.00166889
-0.00163522
-0.00161417
-0.00160686
-0.00161379
-0.00163493
-0.00166959
-0.00171645
-0.00177362
-0.00183859
-0.00190834
-0.00197934
-0.00204767
-0.00210922
-0.00215984
-0.00219567
-0.00221391
-0.00221225
-0.00219208
-0.00627171
-0.00629319
-0.00629619
-0.00628151
-0.00625294
-0.00621317
-0.00616553
-0.00611343
-0.00606022
-0.00600911
-0.00596297
-0.00592431
-0.00589517
-0.00587711
-0.00587112
-0.00587766
-0.00589667
-0.00592755
-0.00596909
-0.00601956
-0.00607673
-0.00613788
-0.00619993
-0.00625948
-0.00631294
-0.00635675
-0.00638749
-0.00640246
-0.00639784
-0.00637281
-0.0125426
-0.0125677
-0.012574
-0.0125631
-0.0125393
-0.0125054
-0.0124645
-0.0124195
-0.0123734
-0.0123292
-0.0122892
-0.0122557
-0.0122305
-0.012215
-0.0122101
-0.0122163
-0.0122333
-0.0122607
-0.0122975
-0.012342
-0.0123922
-0.0124458
-0.0125001
-0.012552
-0.0125983
-0.012636
-0.0126618
-0.0126729
-0.0126647
-0.0126354
-0.0208576
-0.0208842
-0.0208927
-0.0208851
-0.0208657
-0.0208372
-0.0208024
-0.020764
-0.0207246
-0.0206866
-0.0206523
-0.0206235
-0.020602
-0.0205889
-0.020585
-0.0205907
-0.0206058
-0.02063
-0.0206622
-0.020701
-0.0207448
-0.0207914
-0.0208383
-0.0208831
-0.0209229
-0.0209548
-0.0209759
-0.0209836
-0.0209728
-0.0209417
-0.0311635
-0.0311895
-0.0311991
-0.0311941
-0.0311786
-0.0311551
-0.0311259
-0.0310936
-0.0310603
-0.0310281
-0.0309991
-0.0309749
-0.0309567
-0.0309458
-0.0309428
-0.030948
-0.0309612
-0.0309822
-0.0310101
-0.0310436
-0.0310812
-0.0311211
-0.0311613
-0.0311994
-0.031233
-0.0312597
-0.0312766
-0.0312814
-0.0312695
-0.0312388
-0.0433947
-0.0434185
-0.0434281
-0.043425
-0.0434129
-0.0433939
-0.04337
-0.0433433
-0.0433158
-0.0432891
-0.0432651
-0.043245
-0.0432301
-0.0432213
-0.043219
-0.0432236
-0.0432351
-0.043253
-0.0432766
-0.043305
-0.0433367
-0.0433703
-0.043404
-0.0434358
-0.0434637
-0.0434855
-0.0434988
-0.0435016
-0.0434896
-0.0434612
-0.0574753
-0.0574958
-0.0575045
-0.0575028
-0.0574936
-0.0574786
-0.0574596
-0.0574382
-0.057416
-0.0573946
-0.0573753
-0.0573592
-0.0573473
-0.0573403
-0.0573388
-0.0573428
-0.0573525
-0.0573674
-0.057387
-0.0574103
-0.0574364
-0.057464
-0.0574915
-0.0575174
-0.0575399
-0.0575573
-0.0575675
-0.0575688
-0.0575579
-0.0575331
-0.0733206
-0.073337
-0.0733443
-0.0733434
-0.0733367
-0.0733254
-0.0733108
-0.0732944
-0.0732773
-0.0732608
-0.0732459
-0.0732336
-0.0732245
-0.0732193
-0.0732184
-0.0732219
-0.0732297
-0.0732417
-0.0732574
-0.073276
-0.0732967
-0.0733184
-0.0733401
-0.0733604
-0.0733779
-0.0733912
-0.0733988
-0.0733993
-0.07339
-0.0733698
-0.0908388
-0.0908507
-0.0908562
-0.0908559
-0.0908512
-0.0908432
-0.0908328
-0.0908209
-0.0908086
-0.0907967
-0.090786
-0.0907771
-0.0907706
-0.0907671
-0.0907667
-0.0907696
-0.0907757
-0.0907849
-0.0907968
-0.0908109
-0.0908264
-0.0908427
-0.0908588
-0.0908738
-0.0908867
-0.0908964
-0.0909017
-0.0909018
-0.0908945
-0.0908794
-0.109932
-0.10994
-0.109943
-0.109943
-0.10994
-0.109935
-0.109929
-0.109921
-0.109913
-0.109905
-0.109899
-0.109893
-0.109889
-0.109887
-0.109887
-0.109889
-0.109894
-0.1099
-0.109909
-0.109918
-0.109929
-0.10994
-0.109951
-0.109961
-0.10997
-0.109976
-0.10998
-0.109979
-0.109975
-0.109965
-0.1305
-0.130503
-0.130505
-0.130505
-0.130503
-0.130501
-0.130498
-0.130494
-0.13049
-0.130486
-0.130483
-0.13048
-0.130478
-0.130478
-0.130478
-0.13048
-0.130483
-0.130487
-0.130492
-0.130497
-0.130504
-0.13051
-0.130516
-0.130522
-0.130526
-0.13053
-0.130531
-0.130531
-0.130529
-0.130524
-0.152438
-0.152437
-0.152437
-0.152437
-0.152437
-0.152437
-0.152437
-0.152436
-0.152436
-0.152436
-0.152435
-0.152435
-0.152435
-0.152436
-0.152437
-0.152438
-0.152439
-0.152441
-0.152443
-0.152445
-0.152447
-0.152449
-0.152451
-0.152452
-0.152453
-0.152454
-0.152454
-0.152454
-0.152454
-0.152454
-0.175642
-0.175638
-0.175636
-0.175636
-0.175637
-0.175639
-0.175641
-0.175644
-0.175647
-0.17565
-0.175652
-0.175654
-0.175656
-0.175658
-0.175659
-0.175659
-0.175659
-0.175659
-0.175658
-0.175656
-0.175655
-0.175653
-0.17565
-0.175648
-0.175646
-0.175645
-0.175644
-0.175644
-0.175646
-0.17565
-0.200008
-0.2
-0.199997
-0.199997
-0.199999
-0.200003
-0.200007
-0.200013
-0.200018
-0.200024
-0.200029
-0.200033
-0.200036
-0.200039
-0.20004
-0.20004
-0.200039
-0.200036
-0.200033
-0.200028
-0.200023
-0.200018
-0.200012
-0.200006
-0.200002
-0.199998
-0.199996
-0.199996
-0.2
-0.200008
-0.225433
-0.225423
-0.225418
-0.225418
-0.225421
-0.225426
-0.225433
-0.225441
-0.225449
-0.225457
-0.225464
-0.22547
-0.225474
-0.225477
-0.225479
-0.225478
-0.225476
-0.225471
-0.225466
-0.225459
-0.225451
-0.225442
-0.225433
-0.225425
-0.225417
-0.225412
-0.225409
-0.22541
-0.225415
-0.225426
-0.251819
-0.251807
-0.251801
-0.251801
-0.251805
-0.251811
-0.25182
-0.25183
-0.25184
-0.251849
-0.251858
-0.251865
-0.251871
-0.251875
-0.251876
-0.251875
-0.251871
-0.251866
-0.251858
-0.251849
-0.251838
-0.251827
-0.251815
-0.251804
-0.251795
-0.251787
-0.251784
-0.251784
-0.251791
-0.251805
-0.27907
-0.279056
-0.27905
-0.27905
-0.279054
-0.279062
-0.279072
-0.279083
-0.279095
-0.279106
-0.279117
-0.279125
-0.279132
-0.279136
-0.279137
-0.279135
-0.279131
-0.279124
-0.279114
-0.279103
-0.27909
-0.279076
-0.279062
-0.279049
-0.279038
-0.279029
-0.279025
-0.279025
-0.279033
-0.27905
-0.307096
-0.307081
-0.307074
-0.307074
-0.307079
-0.307088
-0.307099
-0.307112
-0.307125
-0.307138
-0.30715
-0.307159
-0.307166
-0.30717
-0.307172
-0.30717
-0.307164
-0.307156
-0.307145
-0.307132
-0.307117
-0.307101
-0.307085
-0.30707
-0.307057
-0.307048
-0.307042
-0.307043
-0.307051
-0.307069
-0.335813
-0.335797
-0.33579
-0.33579
-0.335796
-0.335805
-0.335818
-0.335832
-0.335846
-0.33586
-0.335872
-0.335883
-0.33589
-0.335895
-0.335896
-0.335894
-0.335888
-0.335878
-0.335866
-0.335851
-0.335835
-0.335817
-0.3358
-0.335783
-0.335768
-0.335757
-0.335751
-0.335752
-0.335761
-0.33578
-0.365142
-0.365125
-0.365118
-0.365118
-0.365125
-0.365135
-0.365149
-0.365164
-0.365179
-0.365194
-0.365207
-0.365218
-0.365227
-0.365231
-0.365232
-0.365229
-0.365223
-0.365213
-0.365199
-0.365183
-0.365165
-0.365146
-0.365126
-0.365108
-0.365092
-0.36508
-0.365073
-0.365073
-0.365083
-0.365103
-0.395011
-0.394994
-0.394987
-0.394988
-0.394994
-0.395006
-0.39502
-0.395036
-0.395053
-0.395069
-0.395083
-0.395095
-0.395103
-0.395108
-0.395109
-0.395106
-0.395099
-0.395088
-0.395073
-0.395056
-0.395036
-0.395015
-0.394994
-0.394975
-0.394957
-0.394944
-0.394937
-0.394936
-0.394946
-0.394966
-0.425355
-0.425338
-0.425331
-0.425333
-0.42534
-0.425353
-0.425368
-0.425385
-0.425403
-0.42542
-0.425435
-0.425447
-0.425456
-0.425461
-0.425462
-0.425459
-0.425451
-0.425439
-0.425423
-0.425404
-0.425383
-0.425361
-0.425339
-0.425318
-0.425299
-0.425285
-0.425276
-0.425275
-0.425284
-0.425305
-0.456117
-0.4561
-0.456094
-0.456096
-0.456105
-0.456118
-0.456134
-0.456153
-0.456172
-0.456189
-0.456205
-0.456219
-0.456228
-0.456233
-0.456234
-0.456231
-0.456222
-0.456209
-0.456193
-0.456173
-0.45615
-0.456126
-0.456102
-0.456079
-0.456059
-0.456044
-0.456034
-0.456032
-0.456041
-0.456061
-0.487246
-0.48723
-0.487224
-0.487227
-0.487237
-0.487251
-0.487269
-0.487289
-0.487309
-0.487328
-0.487345
-0.487359
-0.48737
-0.487375
-0.487376
-0.487372
-0.487363
-0.487349
-0.487331
-0.48731
-0.487286
-0.48726
-0.487234
-0.48721
-0.487188
-0.487171
-0.48716
-0.487157
-0.487164
-0.487184
-0.518698
-0.518683
-0.518678
-0.518683
-0.518694
-0.51871
-0.518729
-0.518751
-0.518772
-0.518793
-0.518812
-0.518827
-0.518838
-0.518844
-0.518845
-0.518841
-0.518831
-0.518816
-0.518797
-0.518774
-0.518748
-0.51872
-0.518692
-0.518666
-0.518642
-0.518623
-0.51861
-0.518606
-0.518612
-0.51863
-0.550437
-0.550424
-0.550421
-0.550427
-0.55044
-0.550457
-0.550479
-0.550502
-0.550526
-0.550549
-0.550569
-0.550586
-0.550598
-0.550605
-0.550606
-0.550601
-0.550591
-0.550575
-0.550554
-0.550529
-0.550501
-0.550471
-0.55044
-0.550411
-0.550385
-0.550364
-0.55035
-0.550343
-0.550348
-0.550364
-0.582436
-0.582425
-0.582424
-0.582431
-0.582446
-0.582466
-0.58249
-0.582516
-0.582542
-0.582567
-0.58259
-0.582608
-0.582621
-0.582629
-0.582631
-0.582626
-0.582615
-0.582597
-0.582575
-0.582547
-0.582517
-0.582484
-0.58245
-0.582418
-0.58239
-0.582366
-0.582349
-0.582341
-0.582343
-0.582357
-0.614673
-0.614665
-0.614664
-0.614673
-0.61469
-0.614713
-0.61474
-0.614769
-0.614799
-0.614827
-0.614852
-0.614873
-0.614888
-0.614897
-0.614899
-0.614894
-0.614882
-0.614863
-0.614838
-0.614808
-0.614774
-0.614737
-0.6147
-0.614664
-0.614632
-0.614605
-0.614587
-0.614577
-0.614578
-0.614588
-0.647142
-0.647133
-0.647133
-0.647143
-0.647161
-0.647187
-0.647218
-0.647252
-0.647286
-0.647319
-0.647348
-0.647371
-0.647389
-0.647399
-0.647402
-0.647397
-0.647383
-0.647363
-0.647335
-0.647301
-0.647263
-0.647222
-0.64718
-0.647139
-0.647102
-0.647072
-0.647051
-0.647041
-0.647042
-0.647052
)
;

boundaryField
{
    floor
    {
        type            calculated;
        value           nonuniform List<scalar> 
30
(
0.00052611
0.000511707
0.000513041
0.000534014
0.000573342
0.000627683
0.000692523
0.000763125
0.000834879
0.000903534
0.000965331
0.00101709
0.00105627
0.00108096
0.00108993
0.00108259
0.001059
0.0010199
0.000966711
0.000901521
0.000827104
0.0007469
0.000664954
0.000585793
0.00051432
0.00045556
0.000414198
0.000393538
0.000394387
0.00041198
)
;
    }
    ceiling
    {
        type            calculated;
        value           nonuniform List<scalar> 
30
(
-0.663447
-0.663439
-0.663439
-0.663449
-0.663468
-0.663494
-0.663525
-0.663559
-0.663594
-0.663626
-0.663655
-0.663679
-0.663697
-0.663707
-0.66371
-0.663705
-0.663691
-0.66367
-0.663643
-0.663609
-0.66357
-0.663529
-0.663487
-0.663446
-0.663409
-0.663378
-0.663357
-0.663346
-0.663347
-0.663357
)
;
    }
    fixedWalls
    {
        type            calculated;
        value           nonuniform List<scalar> 
60
(
0
-0.0020837
-0.00627171
-0.0125426
-0.0208576
-0.0311635
-0.0433947
-0.0574753
-0.0733206
-0.0908388
-0.109932
-0.1305
-0.152438
-0.175642
-0.200008
-0.225433
-0.251819
-0.27907
-0.307096
-0.335813
-0.365142
-0.395011
-0.425355
-0.456117
-0.487246
-0.518698
-0.550437
-0.582436
-0.614673
-0.647142
-0.000113604
-0.00219208
-0.00637281
-0.0126354
-0.0209417
-0.0312388
-0.0434612
-0.0575331
-0.0733698
-0.0908794
-0.109965
-0.130524
-0.152454
-0.17565
-0.200008
-0.225426
-0.251805
-0.27905
-0.307069
-0.33578
-0.365103
-0.394966
-0.425305
-0.456061
-0.487184
-0.51863
-0.550364
-0.582357
-0.614588
-0.647052
)
;
    }
    frontAndBack
    {
        type            empty;
    }
}


// ************************************************************************* //
