/*--------------------------------*- C++ -*----------------------------------*\
| =========                 |                                                 |
| \\      /  F ield         | OpenFOAM: The Open Source CFD Toolbox           |
|  \\    /   O peration     | Version:  2412                                  |
|   \\  /    A nd           | Website:  www.openfoam.com                      |
|    \\/     M anipulation  |                                                 |
\*---------------------------------------------------------------------------*/
FoamFile
{
    version     2.0;
    format      ascii;
    arch        "LSB;label=32;scalar=64";
    class       volScalarField;
    location    "300";
    object      p_rgh;
}
// * * * * * * * * * * * * * * * * * * * * * * * * * * * * * * * * * * * * * //

dimensions      [0 2 -2 0 0 0 0];

internalField   nonuniform List<scalar> 
900
(
0.00052611
0.000511707
0.000513041
0.000534014
0.000573342
0.000627683
0.000692523
0.000763125
0.000834879
0.000903534
0.000965331
0.00101709
0.00105627
0.00108096
0.00108993
0.00108259
0.001059
0.0010199
0.000966711
0.000901521
0.000827104
0.0007469
0.000664954
0.000585793
0.00051432
0.00045556
0.000414198
0.000393538
0.000394387
0.00041198
0.00263863
0.00262953
0.00263669
0.00266167
0.00270195
0.00275469
0.0028161
0.0028822
0.00294901
0.00301278
0.00307009
0.00311804
0.00315424
0.00317692
0.00318492
0.00317771
0.00315534
0.00311851
0.00306857
0.00300751
0.00293789
0.00286286
0.0027861
0.00271159
0.00264354
0.00258616
0.00254336
0.002518
0.00251237
0.00252509
0.00678818
0.0067884
0.00680495
0.00683846
0.00688525
0.00694257
0.00700698
0.00707488
0.00714272
0.00720699
0.00726448
0.00731242
0.00734852
0.00737107
0.00737895
0.00737167
0.00734925
0.00731239
0.00726238
0.00720115
0.00713118
0.00705548
0.0069775
0.00690089
0.00682947
0.00676702
0.00671713
0.0066826
0.00666719
0.00667156
0.0128888
0.0129048
0.0129358
0.0129828
0.0130416
0.0131093
0.0131827
0.0132582
0.0133325
0.0134021
0.013464
0.0135154
0.013554
0.0135781
0.0135867
0.0135791
0.0135555
0.0135165
0.0134634
0.0133981
0.0133231
0.0132414
0.0131563
0.0130714
0.0129903
0.0129166
0.0128539
0.0128051
0.0127748
0.0127641
0.0208226
0.0208614
0.0209125
0.020978
0.0210537
0.0211368
0.0212239
0.0213117
0.0213967
0.0214757
0.0215454
0.0216029
0.0216461
0.0216731
0.0216828
0.0216748
0.0216491
0.0216063
0.0215477
0.0214753
0.0213916
0.0212995
0.0212026
0.0211044
0.0210083
0.0209181
0.0208374
0.0207689
0.0207175
0.0206842
0.0304407
0.0305085
0.0305846
0.030673
0.0307697
0.0308722
0.0309771
0.0310809
0.0311802
0.0312715
0.0313516
0.0314174
0.0314667
0.0314977
0.0315091
0.0315005
0.0314719
0.031424
0.031358
0.031276
0.0311805
0.0310748
0.0309623
0.0308465
0.0307313
0.0306202
0.0305168
0.030424
0.0303461
0.0302835
0.0415679
0.0416692
0.0417742
0.0418888
0.0420098
0.0421346
0.04226
0.0423825
0.0424984
0.0426042
0.0426964
0.042772
0.0428285
0.0428641
0.0428776
0.0428683
0.0428363
0.0427823
0.0427076
0.0426144
0.0425052
0.0423833
0.0422525
0.0421164
0.0419788
0.0418435
0.041714
0.0415931
0.0414842
0.0413871
0.0540065
0.0541443
0.0542807
0.0544236
0.0545708
0.0547199
0.0548675
0.0550101
0.0551439
0.0552652
0.0553705
0.0554566
0.0555209
0.0555614
0.055577
0.055567
0.0555313
0.0554708
0.0553868
0.0552814
0.0551574
0.0550182
0.0548675
0.0547093
0.0545475
0.0543859
0.0542281
0.0540765
0.0539337
0.0537987
0.0675424
0.0677181
0.067887
0.0680592
0.0682333
0.0684071
0.0685774
0.0687404
0.0688924
0.0690294
0.0691477
0.0692443
0.0693163
0.0693619
0.0693796
0.0693688
0.0693295
0.0692624
0.069169
0.0690514
0.0689125
0.0687557
0.0685848
0.068404
0.0682174
0.0680288
0.0678416
0.0676581
0.06748
0.0673052
0.0819509
0.0821643
0.0823655
0.0825668
0.0827673
0.0829653
0.0831574
0.0833401
0.0835094
0.0836612
0.083792
0.0838984
0.0839777
0.0840279
0.0840475
0.084036
0.0839933
0.0839201
0.0838178
0.0836887
0.0835356
0.083362
0.0831718
0.0829692
0.0827583
0.0825432
0.082327
0.0821117
0.0818982
0.0816833
0.0970031
0.0972527
0.0974848
0.0977135
0.0979389
0.0981593
0.0983716
0.0985722
0.0987571
0.0989223
0.099064
0.0991791
0.0992647
0.099319
0.0993403
0.0993282
0.0992824
0.0992038
0.0990937
0.0989544
0.0987887
0.0985999
0.0983922
0.0981695
0.0979362
0.0976962
0.0974525
0.0972068
0.0969592
0.0967056
0.112472
0.112755
0.113015
0.113269
0.113517
0.113757
0.113987
0.114203
0.114401
0.114577
0.114728
0.11485
0.114941
0.114998
0.115021
0.115008
0.11496
0.114877
0.114761
0.114613
0.114437
0.114235
0.114013
0.113773
0.11352
0.113257
0.112989
0.112715
0.112436
0.112146
0.128137
0.12845
0.128735
0.129011
0.129277
0.129534
0.129778
0.130006
0.130215
0.130399
0.130557
0.130684
0.130778
0.130838
0.130862
0.130849
0.130799
0.130713
0.130592
0.130438
0.130254
0.130043
0.129808
0.129554
0.129285
0.129004
0.128714
0.128416
0.128108
0.127786
0.143792
0.14413
0.144436
0.144729
0.145011
0.14528
0.145535
0.145772
0.145987
0.146177
0.146339
0.146469
0.146566
0.146627
0.146651
0.146638
0.146587
0.146499
0.146375
0.146218
0.146028
0.145811
0.145568
0.145304
0.145023
0.144727
0.14442
0.144101
0.14377
0.14342
0.159248
0.159604
0.159927
0.160233
0.160526
0.160803
0.161065
0.161306
0.161525
0.161718
0.161881
0.162012
0.162109
0.162171
0.162195
0.162182
0.162131
0.162042
0.161918
0.161759
0.161568
0.161347
0.1611
0.16083
0.160541
0.160235
0.159915
0.159581
0.159231
0.15886
0.174335
0.174705
0.175038
0.175353
0.175652
0.175934
0.176197
0.17644
0.176659
0.176851
0.177013
0.177143
0.177239
0.1773
0.177324
0.177311
0.177261
0.177173
0.17705
0.176892
0.176702
0.176482
0.176235
0.175963
0.17567
0.175359
0.175031
0.174687
0.174323
0.173936
0.188908
0.189287
0.189625
0.189944
0.190244
0.190526
0.190788
0.191028
0.191243
0.191432
0.19159
0.191718
0.191811
0.19187
0.191894
0.191881
0.191832
0.191747
0.191627
0.191473
0.191287
0.19107
0.190826
0.190557
0.190265
0.189953
0.189623
0.189273
0.188902
0.188504
0.20285
0.20323
0.20357
0.203886
0.204183
0.204461
0.204718
0.204952
0.205161
0.205343
0.205496
0.205618
0.205708
0.205765
0.205787
0.205775
0.205728
0.205647
0.205531
0.205383
0.205203
0.204994
0.204756
0.204493
0.204207
0.203899
0.203571
0.203222
0.202849
0.202447
0.216069
0.216445
0.216779
0.21709
0.21738
0.217649
0.217896
0.218121
0.218321
0.218494
0.21864
0.218756
0.218841
0.218895
0.218916
0.218905
0.21886
0.218783
0.218674
0.218534
0.218363
0.218163
0.217935
0.217682
0.217405
0.217106
0.216785
0.216441
0.216072
0.215673
0.228501
0.228867
0.229192
0.229492
0.22977
0.230027
0.230262
0.230475
0.230663
0.230826
0.230962
0.23107
0.23115
0.2312
0.231219
0.231209
0.231168
0.231096
0.230995
0.230864
0.230704
0.230516
0.230301
0.230062
0.229798
0.229511
0.229201
0.228869
0.228509
0.228118
0.24011
0.240461
0.240771
0.241057
0.24132
0.241561
0.241782
0.241979
0.242154
0.242304
0.242429
0.242528
0.242601
0.242647
0.242665
0.242656
0.242619
0.242553
0.24246
0.24234
0.242193
0.24202
0.241821
0.241597
0.24135
0.241079
0.240786
0.240468
0.240123
0.239747
0.250888
0.251219
0.25151
0.251777
0.252021
0.252245
0.252447
0.252628
0.252786
0.252923
0.253036
0.253125
0.253191
0.253232
0.253248
0.25324
0.253207
0.253149
0.253065
0.252957
0.252824
0.252667
0.252486
0.252281
0.252054
0.251803
0.251529
0.251231
0.250906
0.250549
0.260852
0.261158
0.261427
0.261671
0.261894
0.262096
0.262278
0.26244
0.262581
0.262702
0.262802
0.26288
0.262938
0.262974
0.262989
0.262982
0.262953
0.262903
0.26283
0.262735
0.262618
0.262478
0.262317
0.262134
0.261928
0.261701
0.26145
0.261176
0.260875
0.260543
0.270043
0.27032
0.270563
0.270782
0.27098
0.271159
0.271318
0.271459
0.271582
0.271686
0.271772
0.271839
0.271889
0.27192
0.271932
0.271927
0.271903
0.27186
0.271798
0.271717
0.271617
0.271497
0.271357
0.271197
0.271017
0.270815
0.270592
0.270345
0.270072
0.269769
0.278528
0.278773
0.278985
0.279176
0.279347
0.2795
0.279635
0.279754
0.279856
0.279943
0.280013
0.280069
0.280109
0.280135
0.280146
0.280142
0.280123
0.280088
0.280038
0.279973
0.27989
0.279791
0.279675
0.27954
0.279387
0.279214
0.27902
0.278805
0.278564
0.278295
0.286396
0.286604
0.286783
0.286942
0.287084
0.287209
0.287318
0.287413
0.287494
0.287561
0.287616
0.287659
0.28769
0.28771
0.287719
0.287716
0.287702
0.287677
0.287639
0.28759
0.287527
0.28745
0.287358
0.287251
0.287127
0.286985
0.286824
0.286643
0.286438
0.286208
0.293756
0.293923
0.294066
0.294191
0.294301
0.294396
0.294478
0.294547
0.294605
0.294652
0.29469
0.29472
0.294741
0.294755
0.294761
0.29476
0.294752
0.294736
0.294712
0.294679
0.294636
0.294583
0.294517
0.294439
0.294347
0.294239
0.294114
0.293971
0.293806
0.293618
0.300737
0.30086
0.300965
0.301054
0.301129
0.301192
0.301244
0.301286
0.301319
0.301345
0.301366
0.301381
0.301392
0.301399
0.301403
0.301404
0.301402
0.301395
0.301385
0.30137
0.301349
0.301321
0.301284
0.301237
0.301179
0.301107
0.301021
0.300918
0.300796
0.300655
0.30749
0.307566
0.30763
0.307681
0.30772
0.307749
0.307768
0.307781
0.307788
0.307791
0.307792
0.307792
0.307792
0.307792
0.307794
0.307796
0.3078
0.307804
0.307809
0.307813
0.307815
0.307814
0.307808
0.307795
0.307774
0.307741
0.307696
0.307637
0.307561
0.30747
0.314177
0.314208
0.31423
0.314241
0.314241
0.314233
0.314218
0.314198
0.314177
0.314155
0.314136
0.314119
0.314106
0.314099
0.314098
0.314102
0.314112
0.314128
0.314149
0.314174
0.314201
0.31423
0.314257
0.31428
0.314299
0.314308
0.314307
0.314294
0.314267
0.314228
)
;

boundaryField
{
    floor
    {
        type            fixedFluxPressure;
        gradient        uniform 0;
        value           nonuniform List<scalar> 
30
(
0.00052611
0.000511707
0.000513041
0.000534014
0.000573342
0.000627683
0.000692523
0.000763125
0.000834879
0.000903534
0.000965331
0.00101709
0.00105627
0.00108096
0.00108993
0.00108259
0.001059
0.0010199
0.000966711
0.000901521
0.000827104
0.0007469
0.000664954
0.000585793
0.00051432
0.00045556
0.000414198
0.000393538
0.000394387
0.00041198
)
;
    }
    ceiling
    {
        type            fixedFluxPressure;
        gradient        nonuniform List<scalar> 
30
(
2.03292
2.01898
2.00568
1.99316
1.9815
1.97075
1.96096
1.95218
1.94445
1.93783
1.93233
1.928
1.92486
1.92293
1.92222
1.92275
1.92452
1.92754
1.93179
1.93728
1.94397
1.95186
1.96093
1.97113
1.98243
1.9948
2.00825
2.02281
2.03864
2.05622
)
;
        value           nonuniform List<scalar> 
30
(
0.317553
0.317561
0.317561
0.317551
0.317532
0.317506
0.317475
0.317441
0.317406
0.317374
0.317345
0.317321
0.317303
0.317293
0.31729
0.317295
0.317309
0.31733
0.317357
0.317391
0.31743
0.317471
0.317513
0.317554
0.317591
0.317622
0.317643
0.317654
0.317653
0.317643
)
;
    }
    fixedWalls
    {
        type            fixedFluxPressure;
        gradient        uniform 0;
        value           nonuniform List<scalar> 
60
(
0.00052611
0.00263863
0.00678818
0.0128888
0.0208226
0.0304407
0.0415679
0.0540065
0.0675424
0.0819509
0.0970031
0.112472
0.128137
0.143792
0.159248
0.174335
0.188908
0.20285
0.216069
0.228501
0.24011
0.250888
0.260852
0.270043
0.278528
0.286396
0.293756
0.300737
0.30749
0.314177
0.00041198
0.00252509
0.00667156
0.0127641
0.0206842
0.0302835
0.0413871
0.0537987
0.0673052
0.0816833
0.0967056
0.112146
0.127786
0.14342
0.15886
0.173936
0.188504
0.202447
0.215673
0.228118
0.239747
0.250549
0.260543
0.269769
0.278295
0.286208
0.293618
0.300655
0.30747
0.314228
)
;
    }
    frontAndBack
    {
        type            empty;
    }
}


// ************************************************************************* //
