/*--------------------------------*- C++ -*----------------------------------*\
| =========                 |                                                 |
| \\      /  F ield         | OpenFOAM: The Open Source CFD Toolbox           |
|  \\    /   O peration     | Version:  2412                                  |
|   \\  /    A nd           | Website:  www.openfoam.com                      |
|    \\/     M anipulation  |                                                 |
\*---------------------------------------------------------------------------*/
FoamFile
{
    version     2.0;
    format      ascii;
    arch        "LSB;label=32;scalar=64";
    class       surfaceScalarField;
    location    "300";
    object      phi;
}
// * * * * * * * * * * * * * * * * * * * * * * * * * * * * * * * * * * * * * //

dimensions      [0 3 -1 0 0 0 0];

oriented        oriented;

internalField   nonuniform List<scalar> 
1740
(
-5.54084e-09
5.54214e-09
-2.12855e-08
1.57449e-08
-4.23694e-08
2.10849e-08
-6.40921e-08
2.1724e-08
-8.31332e-08
1.90417e-08
-9.7393e-08
1.42599e-08
-1.05734e-07
8.34011e-09
-1.07722e-07
1.98817e-09
-1.0343e-07
-4.29115e-09
-9.32982e-08
-1.01311e-08
-7.80299e-08
-1.52675e-08
-5.85125e-08
-1.95163e-08
-3.57586e-08
-2.27528e-08
-1.08624e-08
-2.48949e-08
1.50351e-08
-2.58955e-08
4.07673e-08
-2.57301e-08
6.51577e-08
-2.43902e-08
8.70452e-08
-2.18883e-08
1.05314e-07
-1.82676e-08
1.18926e-07
-1.36097e-08
1.26972e-07
-8.04494e-09
1.28746e-07
-1.77159e-09
1.23829e-07
4.92033e-09
1.12205e-07
1.16268e-08
9.44189e-08
1.77828e-08
7.18056e-08
2.26066e-08
4.67615e-08
2.50389e-08
2.30083e-08
2.37536e-08
5.71064e-09
1.73034e-08
5.71562e-09
-1.69505e-08
2.24924e-08
-5.47391e-08
5.35331e-08
-1.02508e-07
6.88517e-08
-1.51175e-07
7.0391e-08
-1.93939e-07
6.18063e-08
-2.26193e-07
4.65144e-08
-2.45214e-07
2.73605e-08
-2.49793e-07
6.5659e-09
-2.39898e-07
-1.41885e-08
-2.1639e-07
-3.36398e-08
-1.80807e-07
-5.0853e-08
-1.35166e-07
-6.51577e-08
-8.18277e-08
-7.60902e-08
-2.33827e-08
-8.33407e-08
3.744e-08
-8.67199e-08
9.78387e-08
-8.61286e-08
1.54995e-07
-8.15468e-08
2.06142e-07
-7.30393e-08
2.48646e-07
-6.07759e-08
2.80103e-07
-4.50655e-08
2.98459e-07
-2.63989e-08
3.02188e-07
-5.50037e-09
2.90496e-07
1.66097e-08
2.63571e-07
3.85461e-08
2.22905e-07
5.84435e-08
1.71659e-07
7.38484e-08
1.15056e-07
8.16425e-08
6.06798e-08
7.8138e-08
1.84766e-08
5.95182e-08
2.41838e-08
-2.42725e-08
4.67662e-08
-7.58241e-08
1.05089e-07
-1.39514e-07
1.32544e-07
-2.03908e-07
1.34786e-07
-2.60451e-07
1.18351e-07
-3.03205e-07
8.92696e-08
-3.2851e-07
5.26689e-08
-3.34631e-07
1.26876e-08
-3.21381e-07
-2.74374e-08
-2.89803e-07
-6.52174e-08
-2.41879e-07
-9.87776e-08
-1.80287e-07
-1.2675e-07
-1.08205e-07
-1.48171e-07
-2.91532e-08
-1.62392e-07
5.31333e-08
-1.69008e-07
1.34808e-07
-1.67804e-07
2.1201e-07
-1.58748e-07
2.80964e-07
-1.41992e-07
3.38094e-07
-1.17907e-07
3.8017e-07
-8.71423e-08
4.04486e-07
-5.07132e-08
4.09084e-07
-1.00969e-08
3.93029e-07
3.26618e-08
3.56729e-07
7.48383e-08
3.02306e-07
1.12861e-07
2.33985e-07
1.42169e-07
1.58479e-07
1.57157e-07
8.53007e-08
1.51324e-07
2.70001e-08
1.17809e-07
5.11834e-08
-2.75149e-08
7.4281e-08
-8.5632e-08
1.63208e-07
-1.57021e-07
2.03938e-07
-2.2898e-07
2.06746e-07
-2.92132e-07
1.81503e-07
-3.39933e-07
1.37073e-07
-3.68286e-07
8.10223e-08
-3.75169e-07
1.95702e-08
-3.60284e-07
-4.23241e-08
-3.24719e-07
-1.00784e-07
-2.70647e-07
-1.52852e-07
-2.01057e-07
-1.96342e-07
-1.19535e-07
-2.29695e-07
-3.00785e-08
-2.51849e-07
6.30464e-08
-2.62133e-07
1.55438e-07
-2.60198e-07
2.42685e-07
-2.45996e-07
3.20483e-07
-2.19791e-07
3.84776e-07
-1.82202e-07
4.31927e-07
-1.34296e-07
4.58923e-07
-7.77117e-08
4.63629e-07
-1.4806e-08
4.45089e-07
5.11993e-08
4.0386e-07
1.16064e-07
3.42393e-07
1.74328e-07
2.65411e-07
2.19155e-07
1.80297e-07
2.42276e-07
9.74951e-08
2.34125e-07
3.10429e-08
1.84254e-07
8.22378e-08
-2.77699e-08
1.02052e-07
-8.68019e-08
2.22242e-07
-1.59426e-07
2.76565e-07
-2.32656e-07
2.79978e-07
-2.96963e-07
2.45812e-07
-3.45696e-07
1.85807e-07
-3.74651e-07
1.09978e-07
-3.81712e-07
2.66311e-08
-3.66511e-07
-5.75261e-08
-3.30103e-07
-1.37193e-07
-2.7467e-07
-2.08287e-07
-2.03255e-07
-2.67759e-07
-1.19534e-07
-3.13415e-07
-2.76323e-08
-3.43748e-07
6.80372e-08
-3.578e-07
1.62912e-07
-3.5507e-07
2.52421e-07
-3.35503e-07
3.32114e-07
-2.99484e-07
3.97813e-07
-2.47904e-07
4.45793e-07
-1.8228e-07
4.72993e-07
-1.04916e-07
4.77277e-07
-1.90936e-08
4.5773e-07
7.07431e-08
4.14994e-07
1.58799e-07
3.51621e-07
2.377e-07
2.72453e-07
2.98324e-07
1.85006e-07
3.29723e-07
9.99406e-08
3.19188e-07
3.17242e-08
2.5248e-07
1.13969e-07
-2.59964e-08
1.28051e-07
-8.18071e-08
2.78051e-07
-1.5078e-07
3.45537e-07
-2.20492e-07
3.49691e-07
-2.8181e-07
3.07131e-07
-3.28346e-07
2.32343e-07
-3.56041e-07
1.37673e-07
-3.62822e-07
3.34117e-08
-3.48287e-07
-7.20623e-08
-3.13404e-07
-1.72077e-07
-2.60232e-07
-2.61458e-07
-1.91677e-07
-3.36313e-07
-1.11271e-07
-3.93819e-07
-2.29885e-08
-4.32026e-07
6.89025e-08
-4.49686e-07
1.59986e-07
-4.46151e-07
2.45839e-07
-4.21354e-07
3.22161e-07
-3.75807e-07
3.84928e-07
-3.10673e-07
4.30562e-07
-2.2792e-07
4.56147e-07
-1.30509e-07
4.59671e-07
-2.2623e-08
4.40308e-07
9.01071e-08
3.98724e-07
2.00385e-07
3.37418e-07
2.99007e-07
2.61069e-07
3.74669e-07
1.76928e-07
4.13861e-07
9.52742e-08
4.00841e-07
3.00646e-08
3.17706e-07
1.44026e-07
-2.29328e-08
1.50985e-07
-7.26757e-08
3.27791e-07
-1.34491e-07
4.07351e-07
-1.97179e-07
4.12378e-07
-2.52444e-07
3.62397e-07
-2.94458e-07
2.74357e-07
-3.19495e-07
1.62711e-07
-3.25631e-07
3.95479e-08
-3.12458e-07
-8.52356e-08
-2.8082e-07
-2.03715e-07
-2.32562e-07
-3.09714e-07
-1.70309e-07
-3.98563e-07
-9.72723e-08
-4.66853e-07
-1.70766e-08
-5.12217e-07
6.63786e-08
-5.33136e-07
1.49054e-07
-5.28824e-07
2.26904e-07
-4.99204e-07
2.96e-07
-4.44905e-07
3.52673e-07
-3.67349e-07
3.93677e-07
-2.68926e-07
4.16374e-07
-1.5321e-07
4.18967e-07
-2.52178e-08
4.00744e-07
1.08332e-07
3.62361e-07
2.38772e-07
3.06143e-07
3.55226e-07
2.36399e-07
4.44406e-07
1.59786e-07
4.90472e-07
8.57111e-08
4.74923e-07
2.68632e-08
3.76559e-07
1.70884e-07
-1.91099e-08
1.70094e-07
-6.09765e-08
3.69654e-07
-1.13306e-07
4.59678e-07
-1.66573e-07
4.65645e-07
-2.13656e-07
4.09479e-07
-2.4951e-07
3.10211e-07
-2.70891e-07
1.84092e-07
-2.76101e-07
4.4758e-08
-2.64751e-07
-9.65855e-08
-2.37539e-07
-2.30929e-07
-1.96029e-07
-3.51225e-07
-1.42469e-07
-4.52121e-07
-7.96257e-08
-5.29696e-07
-1.06303e-08
-5.8121e-07
6.11435e-08
-6.04906e-07
1.32199e-07
-5.99876e-07
1.9903e-07
-5.66035e-07
2.58237e-07
-5.04113e-07
3.06651e-07
-4.15765e-07
3.41478e-07
-3.03754e-07
3.60463e-07
-1.72195e-07
3.6208e-07
-2.68344e-08
3.45752e-07
1.2466e-07
3.12092e-07
2.72429e-07
2.63162e-07
4.04152e-07
2.02743e-07
5.04823e-07
1.36636e-07
5.56586e-07
7.2993e-08
5.38577e-07
2.27175e-08
4.26826e-07
1.93612e-07
-1.49089e-08
1.85001e-07
-4.79026e-08
4.02647e-07
-8.93876e-08
5.01163e-07
-1.31786e-07
5.08043e-07
-1.69363e-07
4.47056e-07
-1.9802e-07
3.38869e-07
-2.151e-07
2.0117e-07
-2.19188e-07
4.88455e-08
-2.09936e-07
-1.05838e-07
-1.87881e-07
-2.52987e-07
-1.5427e-07
-3.84838e-07
-1.10911e-07
-4.95479e-07
-6.00459e-08
-5.8056e-07
-4.21915e-09
-6.37037e-07
5.38216e-08
-6.62946e-07
1.1123e-07
-6.57281e-07
1.65147e-07
-6.19949e-07
2.12803e-07
-5.51768e-07
2.51623e-07
-4.54586e-07
2.79347e-07
-3.31478e-07
2.94159e-07
-1.87008e-07
2.94848e-07
-2.75252e-08
2.8098e-07
1.38523e-07
2.531e-07
3.00302e-07
2.12938e-07
4.4431e-07
1.63625e-07
5.5414e-07
1.0992e-07
6.103e-07
5.84665e-08
5.90034e-07
1.80742e-08
4.67214e-07
2.11696e-07
-1.06061e-08
1.95605e-07
-3.43561e-08
4.26398e-07
-6.44202e-08
5.31227e-07
-9.52854e-08
5.38908e-07
-1.22719e-07
4.74489e-07
-1.43661e-07
3.5981e-07
-1.56103e-07
2.1361e-07
-1.58958e-07
5.16985e-08
-1.51932e-07
-1.12863e-07
-1.35399e-07
-2.6952e-07
-1.10272e-07
-4.09967e-07
-7.7888e-08
-5.27862e-07
-3.99197e-08
-6.18528e-07
1.72476e-09
-6.7868e-07
4.49787e-08
-7.06201e-07
8.77026e-08
-7.00004e-07
1.27744e-07
-6.5999e-07
1.63021e-07
-5.87044e-07
1.91602e-07
-4.83168e-07
2.11801e-07
-3.5168e-07
2.22274e-07
-1.97488e-07
2.22144e-07
-2.74018e-08
2.11122e-07
1.49536e-07
1.89663e-07
3.21752e-07
1.59116e-07
4.74853e-07
1.21882e-07
5.91379e-07
8.15677e-08
6.50616e-07
4.31693e-08
6.28425e-07
1.32515e-08
4.97144e-07
2.24941e-07
-6.40331e-09
2.02008e-07
-2.10134e-08
4.41009e-07
-3.96927e-08
5.49906e-07
-5.89919e-08
5.58206e-07
-7.62077e-08
4.91703e-07
-8.93478e-08
3.7295e-07
-9.7082e-08
2.21344e-07
-9.86714e-08
5.32866e-08
-9.38892e-08
-1.17643e-07
-8.29507e-08
-2.80455e-07
-6.64331e-08
-4.26484e-07
-4.51988e-08
-5.49096e-07
-2.03391e-08
-6.43388e-07
6.89005e-09
-7.05909e-07
3.51199e-08
-7.34432e-07
6.2934e-08
-7.27819e-07
8.89038e-08
-6.8596e-07
1.1165e-07
-6.09791e-07
1.29904e-07
-5.01422e-07
1.42562e-07
-3.64341e-07
1.48762e-07
-2.03694e-07
1.47956e-07
-2.6604e-08
1.39999e-07
1.57489e-07
1.25237e-07
3.36513e-07
1.04612e-07
4.95481e-07
7.97536e-08
6.1624e-07
5.30783e-08
6.77286e-07
2.78954e-08
6.53609e-07
8.4708e-09
5.16585e-07
2.33408e-07
-2.44558e-09
2.04454e-07
-8.37111e-09
4.46933e-07
-1.61659e-08
5.577e-07
-2.43549e-08
5.66393e-07
-3.17218e-08
4.99066e-07
-3.73222e-08
3.78551e-07
-4.04966e-08
2.24522e-07
-4.08579e-08
5.36488e-08
-3.82566e-08
-1.20243e-07
-3.27583e-08
-2.85949e-07
-2.46156e-08
-4.34625e-07
-1.42299e-08
-5.59482e-07
-2.12747e-09
-6.55493e-07
1.10739e-08
-7.19111e-07
2.46905e-08
-7.48051e-07
3.80119e-08
-7.41139e-07
5.03196e-08
-6.98264e-07
6.09234e-08
-6.20393e-07
6.91981e-08
-5.09696e-07
7.46154e-08
-3.69759e-07
7.67773e-08
-2.05859e-07
7.54558e-08
-2.52848e-08
7.06315e-08
1.62315e-07
6.25356e-08
3.44616e-07
5.16937e-08
5.06329e-07
3.89671e-08
6.28965e-07
2.55977e-08
6.90653e-07
1.3234e-08
6.65987e-07
3.90454e-09
5.25912e-07
2.37321e-07
1.16714e-09
2.03287e-07
3.22388e-09
4.44873e-07
5.47831e-09
5.55442e-07
7.5827e-09
5.64288e-07
9.36463e-09
4.97281e-07
1.07772e-08
3.77137e-07
1.18437e-08
2.2346e-07
1.26146e-08
5.28804e-08
1.31574e-08
-1.20786e-07
1.35407e-08
-2.86332e-07
1.38154e-08
-4.34899e-07
1.40123e-08
-5.59679e-07
1.41363e-08
-6.55618e-07
1.41705e-08
-7.19145e-07
1.40774e-08
-7.47957e-07
1.38099e-08
-7.4087e-07
1.33216e-08
-6.97771e-07
1.25741e-08
-6.1964e-07
1.15493e-08
-5.08669e-07
1.02575e-08
-3.68467e-07
8.73828e-09
-2.04339e-07
7.05838e-09
-2.36034e-08
5.30814e-09
1.64069e-07
3.59813e-09
3.46329e-07
2.05252e-09
5.07873e-07
8.00026e-10
6.30212e-07
-3.89825e-11
6.91495e-07
-4.00022e-10
6.66354e-07
-3.12637e-10
5.25811e-07
2.37007e-07
4.37298e-09
1.98913e-07
1.35505e-08
4.35691e-07
2.47961e-08
5.44191e-07
3.61305e-08
5.52954e-07
4.61303e-08
4.87279e-07
5.38434e-08
3.69418e-07
5.87105e-08
2.18593e-07
6.04741e-08
5.11189e-08
5.91218e-08
-1.19434e-07
5.48378e-08
-2.82048e-07
4.79456e-08
-4.28006e-07
3.88685e-08
-5.50601e-07
2.80952e-08
-6.44843e-07
1.61555e-08
-7.07202e-07
3.60272e-09
-7.354e-07
-9.00475e-09
-7.28262e-07
-2.11007e-08
-6.85675e-07
-3.21251e-08
-6.08615e-07
-4.15407e-08
-4.99254e-07
-4.8849e-08
-3.6116e-07
-5.36153e-08
-1.99573e-07
-5.55091e-08
-2.17072e-08
-5.43469e-08
1.62907e-07
-5.01366e-08
3.42114e-07
-4.31269e-08
5.00856e-07
-3.3866e-08
6.20951e-07
-2.32737e-08
6.80914e-07
-1.27313e-08
6.55802e-07
-4.10657e-09
5.17191e-07
2.32894e-07
7.14042e-09
1.9177e-07
2.24901e-08
4.20338e-07
4.15425e-08
5.2513e-07
6.08993e-08
5.33595e-07
7.8047e-08
4.70133e-07
9.12372e-08
3.56221e-07
9.93921e-08
2.10433e-07
1.01982e-07
4.85293e-08
9.89219e-08
-1.16373e-07
9.04944e-08
-2.73619e-07
7.72592e-08
-4.1477e-07
5.9984e-08
-5.33325e-07
3.95842e-08
-6.24442e-07
1.7072e-08
-6.8469e-07
-6.47473e-09
-7.1185e-07
-2.99565e-08
-7.04779e-07
-5.22661e-08
-6.6337e-07
-7.23151e-08
-5.8857e-07
-8.90735e-08
-4.82497e-07
-1.01612e-07
-3.48622e-07
-1.09152e-07
-1.9203e-07
-1.11134e-07
-1.97204e-08
-1.07297e-07
1.59072e-07
-9.77584e-08
3.32572e-07
-8.31037e-08
4.862e-07
-6.44919e-08
6.02349e-07
-4.37735e-08
6.60201e-07
-2.35839e-08
6.35607e-07
-7.44282e-09
5.01062e-07
2.25458e-07
9.46194e-09
1.82305e-07
3.00076e-08
3.99795e-07
5.56396e-08
4.99492e-07
8.17562e-08
5.07473e-07
1.04924e-07
4.46968e-07
1.2272e-07
3.38424e-07
1.3362e-07
1.99527e-07
1.36859e-07
4.52882e-08
1.3229e-07
-1.11805e-07
1.20277e-07
-2.61607e-07
1.0158e-07
-3.96074e-07
7.72614e-08
-5.09006e-07
4.86001e-08
-5.9578e-07
1.70222e-08
-6.53116e-07
-1.59453e-08
-6.78883e-07
-4.87321e-08
-6.7199e-07
-7.97641e-08
-6.32338e-07
-1.07502e-07
-5.60835e-07
-1.30494e-07
-4.59506e-07
-1.47442e-07
-3.31673e-07
-1.57276e-07
-1.82195e-07
-1.59244e-07
-1.77526e-08
-1.53021e-07
1.52846e-07
-1.3882e-07
3.18369e-07
-1.17526e-07
4.64909e-07
-9.08317e-08
5.75657e-07
-6.13834e-08
6.30738e-07
-3.28811e-08
6.0711e-07
-1.02936e-08
4.78465e-07
2.15166e-07
1.13521e-08
1.70948e-07
3.61384e-08
3.75017e-07
6.71464e-08
4.68486e-07
9.87791e-08
4.75833e-07
1.26847e-07
4.18901e-07
1.4838e-07
3.16894e-07
1.61485e-07
1.86419e-07
1.65197e-07
4.15706e-08
1.5932e-07
-1.05934e-07
1.44285e-07
-2.46575e-07
1.21017e-07
-3.72808e-07
9.08193e-08
-4.78808e-07
5.52741e-08
-5.60231e-07
1.61534e-08
-6.13994e-07
-2.46449e-08
-6.38087e-07
-6.51572e-08
-6.31478e-07
-1.03415e-07
-5.94078e-07
-1.37505e-07
-5.26745e-07
-1.65626e-07
-4.31386e-07
-1.86175e-07
-3.11125e-07
-1.97842e-07
-1.70531e-07
-1.99717e-07
-1.58821e-08
-1.91423e-07
1.4455e-07
-1.73261e-07
3.00211e-07
-1.46367e-07
4.38022e-07
-1.12883e-07
5.42169e-07
-7.61039e-08
5.9395e-07
-4.06495e-08
5.71664e-07
-1.26642e-08
4.50478e-07
2.02493e-07
1.28446e-08
1.581e-07
4.0976e-08
3.46895e-07
7.62272e-08
4.33249e-07
1.12205e-07
4.39852e-07
1.44116e-07
3.86987e-07
1.68559e-07
2.9245e-07
1.83353e-07
1.71622e-07
1.87377e-07
3.75419e-08
1.80391e-07
-9.89535e-08
1.6288e-07
-2.29066e-07
1.35899e-07
-3.45827e-07
1.00944e-07
-4.43852e-07
5.98403e-08
-5.19125e-07
1.46413e-08
-5.68791e-07
-3.24559e-08
-5.90991e-07
-7.91729e-08
-5.84762e-07
-1.23223e-07
-5.50025e-07
-1.62387e-07
-4.87575e-07
-1.94586e-07
-3.9918e-07
-2.17974e-07
-2.87731e-07
-2.31048e-07
-1.57455e-07
-2.32774e-07
-1.41549e-08
-2.22737e-07
1.34517e-07
-2.01313e-07
2.78794e-07
-1.69843e-07
4.06555e-07
-1.30822e-07
5.03143e-07
-8.80664e-08
5.51209e-07
-4.69673e-08
5.30559e-07
-1.45951e-08
4.18112e-07
1.87898e-07
1.39853e-08
1.44117e-07
4.46568e-08
3.16225e-07
8.31204e-08
3.94803e-07
1.22379e-07
4.00597e-07
1.57172e-07
3.52187e-07
1.83774e-07
2.65844e-07
1.99789e-07
1.55602e-07
2.0398e-07
3.33491e-08
1.96073e-07
-9.10501e-08
1.76593e-07
-2.09589e-07
1.46698e-07
-3.15932e-07
1.0803e-07
-4.05186e-07
6.26014e-08
-4.73696e-07
1.26845e-08
-5.18867e-07
-3.92886e-08
-5.39011e-07
-9.07981e-08
-5.33249e-07
-1.39313e-07
-5.01506e-07
-1.82377e-07
-4.44507e-07
-2.17694e-07
-3.63859e-07
-2.43232e-07
-2.62192e-07
-2.57338e-07
-1.43347e-07
-2.58884e-07
-1.26053e-08
-2.47434e-07
1.2307e-07
-2.2342e-07
2.54776e-07
-1.8834e-07
3.71463e-07
-1.44952e-07
4.59747e-07
-9.75015e-08
5.03762e-07
-5.19461e-08
4.84989e-07
-1.61196e-08
3.82267e-07
1.71774e-07
1.48226e-08
1.29305e-07
4.7338e-08
2.83703e-07
8.8108e-08
3.54041e-07
1.29706e-07
3.59005e-07
1.66534e-07
3.15356e-07
1.94633e-07
2.37742e-07
2.11458e-07
1.38774e-07
2.1569e-07
2.91155e-08
2.07038e-07
-8.2399e-08
1.86052e-07
-1.88607e-07
1.53968e-07
-2.83846e-07
1.12536e-07
-3.63753e-07
6.39009e-08
-4.25064e-07
1.0494e-08
-4.65461e-07
-4.50753e-08
-4.83437e-07
-1.00107e-07
-4.78212e-07
-1.51893e-07
-4.49716e-07
-1.97804e-07
-3.98593e-07
-2.35385e-07
-3.26276e-07
-2.62466e-07
-2.3511e-07
-2.77286e-07
-1.28521e-07
-2.78653e-07
-1.12296e-08
-2.66112e-07
1.10535e-07
-2.40137e-07
2.288e-07
-2.02332e-07
3.33656e-07
-1.55655e-07
4.13081e-07
-1.04678e-07
4.52771e-07
-5.57464e-08
4.3606e-07
-1.72838e-08
3.438e-07
1.54486e-07
1.54031e-08
1.13915e-07
4.91754e-08
2.49924e-07
9.14775e-08
3.11736e-07
1.346e-07
3.1589e-07
1.72726e-07
2.77232e-07
2.01748e-07
2.08721e-07
2.19026e-07
1.21491e-07
2.23198e-07
2.49414e-08
2.13964e-07
-7.31616e-08
1.91893e-07
-1.66538e-07
1.58267e-07
-2.50222e-07
1.14916e-07
-3.20399e-07
6.40751e-08
-3.74222e-07
8.27799e-09
-4.09664e-07
-4.97463e-08
-4.2541e-07
-1.07174e-07
-4.20778e-07
-1.61175e-07
-3.95709e-07
-2.09005e-07
-3.50761e-07
-2.48102e-07
-2.8718e-07
-2.76202e-07
-2.0701e-07
-2.91477e-07
-1.13246e-07
-2.92689e-07
-1.00179e-08
-2.79371e-07
9.72119e-08
-2.52017e-07
2.0144e-07
-2.12303e-07
2.93943e-07
-1.63326e-07
3.64107e-07
-1.09849e-07
3.99277e-07
-5.85174e-08
3.84716e-07
-1.81469e-08
3.03428e-07
1.36342e-07
1.57704e-08
9.81528e-08
5.03008e-08
2.15396e-07
9.3471e-08
2.68561e-07
1.37409e-07
2.71957e-07
1.76188e-07
2.38454e-07
2.05634e-07
1.79279e-07
2.23066e-07
1.0406e-07
2.27099e-07
2.09082e-08
2.17435e-07
-6.34944e-08
1.94662e-07
-1.43762e-07
1.60085e-07
-2.15648e-07
1.15578e-07
-2.75891e-07
6.34288e-08
-3.22072e-07
6.23036e-09
-3.52468e-07
-5.3224e-08
-3.65958e-07
-1.1204e-07
-3.61963e-07
-1.67318e-07
-3.4043e-07
-2.16246e-07
-3.01831e-07
-2.56201e-07
-2.47221e-07
-2.8487e-07
-1.78336e-07
-3.00387e-07
-9.77257e-08
-3.01488e-07
-8.91724e-09
-2.87694e-07
8.34133e-08
-2.59506e-07
1.73253e-07
-2.1864e-07
2.53083e-07
-1.68273e-07
3.13724e-07
-1.13234e-07
3.44248e-07
-6.03677e-08
3.31847e-07
-1.87416e-08
2.61799e-07
1.17601e-07
1.5956e-08
8.21985e-08
5.07919e-08
1.80571e-07
9.42262e-08
2.25124e-07
1.38338e-07
2.27848e-07
1.7719e-07
1.99602e-07
2.0661e-07
1.49864e-07
2.2393e-07
8.67471e-08
2.27764e-07
1.70736e-08
2.17827e-07
-5.35541e-08
1.94718e-07
-1.20647e-07
1.59749e-07
-1.80679e-07
1.14805e-07
-2.30949e-07
6.21929e-08
-2.69459e-07
4.52073e-09
-2.94796e-07
-5.54017e-08
-3.06039e-07
-1.14662e-07
-3.02708e-07
-1.70341e-07
-2.84758e-07
-2.19607e-07
-2.52571e-07
-2.59821e-07
-2.07009e-07
-2.88655e-07
-1.495e-07
-3.04233e-07
-8.21486e-08
-3.05281e-07
-7.87279e-09
-2.91309e-07
6.94404e-08
-2.62819e-07
1.44768e-07
-2.21532e-07
2.11797e-07
-1.70619e-07
2.62799e-07
-1.1494e-07
2.88572e-07
-6.13693e-08
2.78287e-07
-1.90943e-08
2.19532e-07
9.85083e-08
1.59601e-08
6.62351e-08
5.06319e-08
1.45911e-07
9.37137e-08
1.82042e-07
1.37357e-07
1.84212e-07
1.7571e-07
1.61252e-07
2.04669e-07
1.20908e-07
2.21623e-07
6.98024e-08
2.25218e-07
1.34809e-08
2.15179e-07
-4.35178e-08
1.92114e-07
-9.75829e-08
1.57329e-07
-1.45898e-07
1.12689e-07
-1.86315e-07
6.04784e-08
-2.17253e-07
3.27889e-09
-2.376e-07
-5.61313e-08
-2.46632e-07
-1.14873e-07
-2.43971e-07
-1.7006e-07
-2.29577e-07
-2.18892e-07
-2.03746e-07
-2.58757e-07
-1.6715e-07
-2.87353e-07
-1.20912e-07
-3.02814e-07
-6.6696e-08
-3.03871e-07
-6.82177e-09
-2.90031e-07
5.56004e-08
-2.61785e-07
1.1652e-07
-2.20822e-07
1.7082e-07
-1.70235e-07
2.12225e-07
-1.14855e-07
2.33187e-07
-6.14633e-08
2.24892e-07
-1.91917e-08
1.77262e-07
7.93113e-08
1.57272e-08
5.0503e-08
4.96587e-08
1.11988e-07
9.1657e-08
1.40043e-07
1.34092e-07
1.41783e-07
1.71303e-07
1.24045e-07
1.99325e-07
9.28885e-08
2.15642e-07
5.34939e-08
2.18964e-07
1.01691e-08
2.09036e-07
-3.35861e-08
1.86462e-07
-7.50075e-08
1.52526e-07
-1.11961e-07
1.09041e-07
-1.42834e-07
5.82257e-08
-1.66445e-07
2.58366e-09
-1.81965e-07
-5.51929e-08
-1.88861e-07
-1.12316e-07
-1.86853e-07
-1.65989e-07
-1.75906e-07
-2.13501e-07
-1.56235e-07
-2.52318e-07
-1.28334e-07
-2.802e-07
-9.30336e-08
-2.95326e-07
-5.15729e-08
-2.96451e-07
-5.69624e-09
-2.83081e-07
4.22346e-08
-2.55676e-07
8.91143e-08
-2.15851e-07
1.3099e-07
-1.66607e-07
1.62991e-07
-1.12603e-07
1.79194e-07
-6.04224e-08
1.7272e-07
-1.89556e-08
1.35805e-07
6.03537e-08
1.51169e-08
3.53836e-08
4.74899e-08
7.96245e-08
8.74235e-08
1.00108e-07
1.27693e-07
1.01514e-07
1.62952e-07
8.87926e-08
1.89441e-07
6.63978e-08
2.04791e-07
3.8143e-08
2.07804e-07
7.16018e-09
1.98262e-07
-2.40411e-08
1.76756e-07
-5.34997e-08
1.44519e-07
-7.97209e-08
1.03277e-07
-1.0159e-07
5.51262e-08
-1.18296e-07
2.42913e-09
-1.29274e-07
-5.22789e-08
-1.34161e-07
-1.06374e-07
-1.32766e-07
-1.57224e-07
-1.25062e-07
-2.02274e-07
-1.11191e-07
-2.39131e-07
-9.14833e-08
-2.65669e-07
-6.65018e-08
-2.80151e-07
-3.70938e-08
-2.81379e-07
-4.46858e-09
-2.68864e-07
2.97149e-08
-2.43011e-07
6.3254e-08
-2.05314e-07
9.33122e-08
-1.58644e-07
1.16312e-07
-1.07389e-07
1.27932e-07
-5.7772e-08
1.23106e-07
-1.82171e-08
9.62539e-08
4.21356e-08
1.38652e-08
2.15166e-08
4.3442e-08
5.00512e-08
7.99167e-08
6.3636e-08
1.16695e-07
6.47376e-08
1.48875e-07
5.66203e-08
1.73011e-07
4.22658e-08
1.8694e-07
2.42112e-08
1.89597e-07
4.50023e-09
1.80818e-07
-1.52653e-08
1.61172e-07
-3.38566e-08
1.31801e-07
-5.03525e-08
9.4288e-08
-6.40771e-08
5.05377e-08
-7.45451e-08
2.68509e-09
-8.14209e-08
-4.69854e-08
-8.44904e-08
-9.61126e-08
-8.36392e-08
-1.42328e-07
-7.88476e-08
-1.83325e-07
-7.01955e-08
-2.16935e-07
-5.78752e-08
-2.41221e-07
-4.22165e-08
-2.54585e-07
-2.37266e-08
-2.55909e-07
-3.1417e-09
-2.44711e-07
1.85139e-08
-2.21317e-07
3.98603e-08
-1.87075e-07
5.90839e-08
-1.44587e-07
7.38313e-08
-9.78956e-08
8.12406e-08
-5.26952e-08
7.79165e-08
-1.66568e-08
6.02176e-08
2.54748e-08
1.15687e-08
9.94509e-09
3.65128e-08
2.51037e-08
6.75147e-08
3.2631e-08
9.88809e-08
3.33656e-08
1.26335e-07
2.91659e-08
1.46894e-07
2.17112e-08
1.58717e-07
1.23903e-08
1.60932e-07
2.28662e-09
1.53448e-07
-7.77926e-09
1.36786e-07
-1.7196e-08
1.11945e-07
-2.55146e-08
8.02741e-08
-3.24121e-08
4.33846e-08
-3.76608e-08
3.06512e-09
-4.11055e-08
-3.87792e-08
-4.26485e-08
-8.01835e-08
-4.22364e-08
-1.19175e-07
-3.9858e-08
-1.53826e-07
-3.55474e-08
-1.82314e-07
-2.93896e-08
-2.02995e-07
-2.15351e-08
-2.14501e-07
-1.22217e-08
-2.15845e-07
-1.80189e-09
-2.0656e-07
9.22955e-09
-1.8687e-07
2.01848e-08
-1.57908e-07
3.0108e-08
-1.2186e-07
3.77866e-08
-8.22526e-08
4.16233e-08
-4.40364e-08
3.97098e-08
-1.38196e-08
2.99882e-08
1.16683e-08
7.68268e-09
2.26268e-09
2.5444e-08
7.33713e-09
4.81117e-08
9.96019e-09
7.1219e-08
1.02481e-08
9.1442e-08
8.93091e-09
1.06536e-07
6.60873e-09
1.15174e-07
3.74578e-09
1.16772e-07
6.83654e-10
1.11324e-07
-2.33266e-09
9.92598e-08
-5.12971e-09
8.1331e-08
-7.58415e-09
5.85286e-08
-9.60907e-09
3.20123e-08
-1.11447e-08
3.05786e-09
-1.21512e-08
-2.69859e-08
-1.26043e-08
-5.67315e-08
-1.24901e-08
-8.47841e-08
-1.18049e-08
-1.09775e-07
-1.05561e-08
-1.30399e-07
-8.76336e-09
-1.45467e-07
-6.46395e-09
-1.53967e-07
-3.72086e-09
-1.55142e-07
-6.28675e-10
-1.48592e-07
2.68179e-09
-1.34418e-07
6.01744e-09
-1.13368e-07
9.06505e-09
-8.70424e-08
1.14742e-08
-5.81068e-08
1.26831e-08
-3.03987e-08
1.20184e-08
-9.08022e-09
8.66816e-09
2.59802e-09
2.26103e-09
9.59673e-09
1.95587e-08
2.98097e-08
3.87418e-08
4.53508e-08
4.90966e-08
4.97797e-08
4.74459e-08
4.23151e-08
3.47308e-08
2.51225e-08
1.3979e-08
1.82945e-09
-1.0773e-08
-2.3262e-08
-3.50659e-08
-4.56203e-08
-5.43816e-08
-6.08451e-08
-6.45659e-08
-6.51875e-08
-6.24976e-08
-5.64986e-08
-4.7419e-08
-3.59478e-08
-2.32719e-08
-1.12536e-08
-2.58758e-09
)
;

boundaryField
{
    floor
    {
        type            calculated;
        value           uniform 0;
    }
    ceiling
    {
        type            calculated;
        value           nonuniform List<scalar> 
30
(
0
5.29396e-23
-5.29396e-23
0
0
0
0
0
0
0
0
0
0
0
0
0
0
0
0
0
0
0
0
0
0
0
-5.29396e-23
5.29396e-23
-5.29396e-23
-5.29396e-23
)
;
    }
    fixedWalls
    {
        type            calculated;
        value           uniform 0;
    }
    frontAndBack
    {
        type            empty;
    }
}


// ************************************************************************* //
