/*--------------------------------*- C++ -*----------------------------------*\
| =========                 |                                                 |
| \\      /  F ield         | OpenFOAM: The Open Source CFD Toolbox           |
|  \\    /   O peration     | Version:  2412                                  |
|   \\  /    A nd           | Website:  www.openfoam.com                      |
|    \\/     M anipulation  |                                                 |
\*---------------------------------------------------------------------------*/
FoamFile
{
    version     2.0;
    format      ascii;
    arch        "LSB;label=32;scalar=64";
    class       volScalarField;
    location    "300";
    object      T;
}
// * * * * * * * * * * * * * * * * * * * * * * * * * * * * * * * * * * * * * //

dimensions      [0 0 0 1 0 0 0];

internalField   nonuniform List<scalar> 
900
(
300.968
300.968
300.968
300.968
300.968
300.968
300.968
300.967
300.967
300.967
300.967
300.967
300.967
300.967
300.967
300.967
300.967
300.967
300.967
300.967
300.967
300.967
300.968
300.968
300.968
300.968
300.968
300.968
300.968
300.968
300.904
300.904
300.903
300.903
300.903
300.903
300.903
300.903
300.903
300.903
300.902
300.902
300.902
300.902
300.902
300.902
300.902
300.902
300.902
300.903
300.903
300.903
300.903
300.903
300.903
300.903
300.903
300.904
300.904
300.904
300.84
300.84
300.84
300.84
300.839
300.839
300.839
300.839
300.838
300.838
300.838
300.838
300.838
300.838
300.838
300.838
300.838
300.838
300.838
300.838
300.838
300.839
300.839
300.839
300.839
300.839
300.84
300.84
300.84
300.84
300.778
300.777
300.777
300.777
300.776
300.776
300.776
300.776
300.775
300.775
300.775
300.775
300.775
300.775
300.775
300.775
300.775
300.775
300.775
300.775
300.775
300.776
300.776
300.776
300.776
300.777
300.777
300.777
300.778
300.778
300.717
300.716
300.716
300.716
300.715
300.715
300.714
300.714
300.714
300.713
300.713
300.713
300.713
300.713
300.713
300.713
300.713
300.713
300.713
300.713
300.714
300.714
300.714
300.715
300.715
300.715
300.716
300.716
300.717
300.717
300.657
300.657
300.656
300.656
300.656
300.655
300.655
300.654
300.654
300.654
300.653
300.653
300.653
300.653
300.653
300.653
300.653
300.653
300.653
300.653
300.654
300.654
300.655
300.655
300.655
300.656
300.656
300.657
300.657
300.658
300.6
300.6
300.599
300.599
300.598
300.598
300.597
300.597
300.596
300.596
300.596
300.595
300.595
300.595
300.595
300.595
300.595
300.595
300.595
300.596
300.596
300.597
300.597
300.597
300.598
300.599
300.599
300.6
300.6
300.601
300.545
300.545
300.544
300.544
300.543
300.543
300.542
300.541
300.541
300.541
300.54
300.54
300.54
300.54
300.54
300.54
300.54
300.54
300.54
300.541
300.541
300.541
300.542
300.542
300.543
300.544
300.544
300.545
300.545
300.546
300.493
300.493
300.492
300.491
300.491
300.49
300.49
300.489
300.489
300.488
300.488
300.487
300.487
300.487
300.487
300.487
300.487
300.487
300.488
300.488
300.488
300.489
300.489
300.49
300.491
300.491
300.492
300.493
300.493
300.494
300.444
300.443
300.442
300.442
300.441
300.441
300.44
300.439
300.439
300.438
300.438
300.438
300.437
300.437
300.437
300.437
300.437
300.438
300.438
300.438
300.439
300.439
300.44
300.44
300.441
300.442
300.442
300.443
300.444
300.445
300.397
300.397
300.396
300.395
300.395
300.394
300.393
300.393
300.392
300.392
300.391
300.391
300.391
300.391
300.391
300.391
300.391
300.391
300.391
300.392
300.392
300.393
300.393
300.394
300.394
300.395
300.396
300.397
300.397
300.398
300.354
300.353
300.352
300.352
300.351
300.35
300.35
300.349
300.349
300.348
300.348
300.348
300.347
300.347
300.347
300.347
300.347
300.348
300.348
300.348
300.349
300.349
300.35
300.35
300.351
300.352
300.352
300.353
300.354
300.355
300.314
300.313
300.312
300.311
300.311
300.31
300.31
300.309
300.309
300.308
300.308
300.307
300.307
300.307
300.307
300.307
300.307
300.307
300.308
300.308
300.308
300.309
300.309
300.31
300.311
300.311
300.312
300.313
300.314
300.314
300.276
300.276
300.275
300.274
300.274
300.273
300.272
300.272
300.271
300.271
300.271
300.27
300.27
300.27
300.27
300.27
300.27
300.27
300.271
300.271
300.271
300.272
300.272
300.273
300.274
300.274
300.275
300.276
300.276
300.277
300.242
300.242
300.241
300.24
300.24
300.239
300.238
300.238
300.237
300.237
300.237
300.236
300.236
300.236
300.236
300.236
300.236
300.236
300.237
300.237
300.237
300.238
300.238
300.239
300.24
300.24
300.241
300.242
300.242
300.243
300.211
300.211
300.21
300.209
300.209
300.208
300.208
300.207
300.207
300.206
300.206
300.206
300.205
300.205
300.205
300.205
300.205
300.206
300.206
300.206
300.207
300.207
300.208
300.208
300.209
300.209
300.21
300.211
300.211
300.212
300.183
300.182
300.182
300.181
300.181
300.18
300.18
300.179
300.179
300.178
300.178
300.178
300.178
300.178
300.178
300.178
300.178
300.178
300.178
300.178
300.179
300.179
300.18
300.18
300.181
300.181
300.182
300.183
300.183
300.184
300.158
300.157
300.157
300.156
300.156
300.155
300.155
300.154
300.154
300.153
300.153
300.153
300.153
300.153
300.153
300.153
300.153
300.153
300.153
300.153
300.154
300.154
300.155
300.155
300.156
300.156
300.157
300.157
300.158
300.159
300.135
300.135
300.134
300.134
300.133
300.133
300.132
300.132
300.131
300.131
300.131
300.131
300.13
300.13
300.13
300.13
300.13
300.131
300.131
300.131
300.131
300.132
300.132
300.133
300.133
300.134
300.134
300.135
300.135
300.136
300.115
300.114
300.114
300.113
300.113
300.113
300.112
300.112
300.112
300.111
300.111
300.111
300.111
300.111
300.111
300.111
300.111
300.111
300.111
300.111
300.112
300.112
300.112
300.113
300.113
300.114
300.114
300.115
300.115
300.116
300.097
300.097
300.096
300.096
300.095
300.095
300.095
300.094
300.094
300.094
300.094
300.093
300.093
300.093
300.093
300.093
300.093
300.093
300.094
300.094
300.094
300.094
300.095
300.095
300.095
300.096
300.096
300.097
300.097
300.098
300.081
300.081
300.08
300.08
300.08
300.079
300.079
300.079
300.079
300.078
300.078
300.078
300.078
300.078
300.078
300.078
300.078
300.078
300.078
300.078
300.079
300.079
300.079
300.079
300.08
300.08
300.08
300.081
300.081
300.082
300.067
300.067
300.067
300.066
300.066
300.066
300.065
300.065
300.065
300.065
300.065
300.064
300.064
300.064
300.064
300.064
300.064
300.064
300.065
300.065
300.065
300.065
300.065
300.066
300.066
300.066
300.067
300.067
300.067
300.068
300.055
300.055
300.054
300.054
300.054
300.054
300.053
300.053
300.053
300.053
300.053
300.053
300.052
300.052
300.052
300.052
300.052
300.053
300.053
300.053
300.053
300.053
300.053
300.054
300.054
300.054
300.054
300.055
300.055
300.055
300.044
300.044
300.044
300.043
300.043
300.043
300.043
300.043
300.042
300.042
300.042
300.042
300.042
300.042
300.042
300.042
300.042
300.042
300.042
300.042
300.042
300.043
300.043
300.043
300.043
300.043
300.044
300.044
300.044
300.045
300.034
300.034
300.034
300.034
300.034
300.033
300.033
300.033
300.033
300.033
300.033
300.033
300.033
300.033
300.033
300.033
300.033
300.033
300.033
300.033
300.033
300.033
300.033
300.033
300.034
300.034
300.034
300.034
300.035
300.035
300.026
300.026
300.025
300.025
300.025
300.025
300.025
300.025
300.025
300.025
300.025
300.025
300.024
300.024
300.024
300.024
300.024
300.025
300.025
300.025
300.025
300.025
300.025
300.025
300.025
300.025
300.025
300.026
300.026
300.026
300.018
300.018
300.018
300.018
300.017
300.017
300.017
300.017
300.017
300.017
300.017
300.017
300.017
300.017
300.017
300.017
300.017
300.017
300.017
300.017
300.017
300.017
300.017
300.017
300.017
300.018
300.018
300.018
300.018
300.018
300.011
300.01
300.01
300.01
300.01
300.01
300.01
300.01
300.01
300.01
300.01
300.01
300.01
300.01
300.01
300.01
300.01
300.01
300.01
300.01
300.01
300.01
300.01
300.01
300.01
300.01
300.01
300.01
300.011
300.011
300.003
300.003
300.003
300.003
300.003
300.003
300.003
300.003
300.003
300.003
300.003
300.003
300.003
300.003
300.003
300.003
300.003
300.003
300.003
300.003
300.003
300.003
300.003
300.003
300.003
300.003
300.003
300.003
300.003
300.003
)
;

boundaryField
{
    floor
    {
        type            fixedValue;
        value           uniform 301;
    }
    ceiling
    {
        type            fixedValue;
        value           uniform 300;
    }
    fixedWalls
    {
        type            zeroGradient;
    }
    frontAndBack
    {
        type            empty;
    }
}


// ************************************************************************* //
