/*--------------------------------*- C++ -*----------------------------------*\
| =========                 |                                                 |
| \\      /  F ield         | OpenFOAM: The Open Source CFD Toolbox           |
|  \\    /   O peration     | Version:  2412                                  |
|   \\  /    A nd           | Website:  www.openfoam.com                      |
|    \\/     M anipulation  |                                                 |
\*---------------------------------------------------------------------------*/
FoamFile
{
    version     2.0;
    format      ascii;
    arch        "LSB;label=32;scalar=64";
    class       volVectorField;
    location    "300";
    object      U;
}
// * * * * * * * * * * * * * * * * * * * * * * * * * * * * * * * * * * * * * //

dimensions      [0 1 -1 0 0 0 0];

internalField   nonuniform List<vector> 
900
(
(-1.50856e-06 1.11448e-06 0)
(-3.45971e-05 7.37796e-06 0)
(-9.35059e-05 1.07757e-05 0)
(-0.0001606 1.11471e-05 0)
(-0.000223645 9.60109e-06 0)
(-0.000274735 6.99992e-06 0)
(-0.000309183 3.94238e-06 0)
(-0.000324793 7.98182e-07 0)
(-0.000321143 -2.21051e-06 0)
(-0.000299088 -4.93822e-06 0)
(-0.000260407 -7.28909e-06 0)
(-0.000207536 -9.20379e-06 0)
(-0.000143362 -1.06467e-05 0)
(-7.10753e-05 -1.15948e-05 0)
(5.95408e-06 -1.20398e-05 0)
(8.425e-05 -1.19788e-05 0)
(0.000160283 -1.14042e-05 0)
(0.000230528 -1.0311e-05 0)
(0.000291547 -8.70786e-06 0)
(0.000340079 -6.61763e-06 0)
(0.000373157 -4.07626e-06 0)
(0.0003883 -1.14499e-06 0)
(0.000383754 2.06821e-06 0)
(0.000358766 5.40015e-06 0)
(0.000313995 8.5938e-06 0)
(0.000252084 1.12373e-05 0)
(0.000178449 1.26637e-05 0)
(0.00010206 1.19195e-05 0)
(3.64757e-05 7.8131e-06 0)
(9.95242e-07 6.24804e-07 0)
(-9.03369e-06 3.48124e-05 0)
(-9.65371e-05 9.04221e-05 0)
(-0.000232031 0.000119239 0)
(-0.00038272 0.000122583 0)
(-0.00052401 0.000107491 0)
(-0.000639195 8.05232e-05 0)
(-0.00071751 4.69744e-05 0)
(-0.000753327 1.08215e-05 0)
(-0.000745012 -2.50343e-05 0)
(-0.000693995 -5.84658e-05 0)
(-0.000604024 -8.79281e-05 0)
(-0.000480552 -0.000112335 0)
(-0.000330242 -0.000130946 0)
(-0.000160597 -0.000143274 0)
(2.03588e-05 -0.000149028 0)
(0.000204274 -0.00014806 0)
(0.000382677 -0.000140326 0)
(0.000547139 -0.000125912 0)
(0.000689491 -0.000105077 0)
(0.000802099 -7.83059e-05 0)
(0.000878166 -4.63791e-05 0)
(0.000912182 -1.04702e-05 0)
(0.0009005 2.77307e-05 0)
(0.000842001 6.58844e-05 0)
(0.000738952 0.000100754 0)
(0.000598036 0.000127934 0)
(0.000431602 0.000141606 0)
(0.000258471 0.000134668 0)
(0.000105795 9.97806e-05 0)
(9.39521e-06 3.66416e-05 0)
(-1.36594e-05 9.95503e-05 0)
(-0.000136444 0.000229675 0)
(-0.000318425 0.000292522 0)
(-0.000518218 0.000298303 0)
(-0.000704933 0.000261845 0)
(-0.000857404 0.000197063 0)
(-0.000961441 0.00011571 0)
(-0.00100924 2.71251e-05 0)
(-0.000998183 -6.15131e-05 0)
(-0.000929777 -0.000144757 0)
(-0.000808759 -0.000218545 0)
(-0.000642283 -0.000279944 0)
(-0.000439264 -0.000326909 0)
(-0.000209858 -0.000358072 0)
(3.49885e-05 -0.000372587 0)
(0.000283805 -0.000370008 0)
(0.000524969 -0.000350257 0)
(0.000746953 -0.000313638 0)
(0.00093863 -0.000260913 0)
(0.00108968 -0.00019345 0)
(0.00119104 -0.000113408 0)
(0.00123553 -2.39586e-05 0)
(0.00121859 7.04665e-05 0)
(0.00113918 0.000163898 0)
(0.0010008 0.000248392 0)
(0.000812656 0.000313646 0)
(0.000590962 0.000346792 0)
(0.00035947 0.000332834 0)
(0.000152257 0.000256291 0)
(1.48074e-05 0.000108001 0)
(-1.54061e-05 0.000179525 0)
(-0.000154573 0.000398776 0)
(-0.000359065 0.000500503 0)
(-0.000582549 0.00050809 0)
(-0.000791049 0.000445936 0)
(-0.000961407 0.000336275 0)
(-0.00107786 0.000198094 0)
(-0.00113153 4.68727e-05 0)
(-0.00111918 -0.000105159 0)
(-0.00104225 -0.00024852 0)
(-0.000905826 -0.000376028 0)
(-0.000717853 -0.000482411 0)
(-0.000488335 -0.000563935 0)
(-0.000228779 -0.000618074 0)
(4.83503e-05 -0.000643239 0)
(0.000329922 -0.000638595 0)
(0.000602642 -0.000604026 0)
(0.000853345 -0.000540139 0)
(0.00106938 -0.000448393 0)
(0.00123906 -0.000331324 0)
(0.00135224 -0.000192861 0)
(0.001401 -3.86918e-05 0)
(0.00138045 0.000123352 0)
(0.00128974 0.000282898 0)
(0.00113308 0.000426465 0)
(0.000920934 0.000537019 0)
(0.000671247 0.000593812 0)
(0.00040999 0.000572879 0)
(0.000174806 0.000448537 0)
(1.70405e-05 0.000197658 0)
(-1.52505e-05 0.000264035 0)
(-0.000156325 0.000577843 0)
(-0.000364323 0.000720482 0)
(-0.000591727 0.000729728 0)
(-0.000803961 0.000640425 0)
(-0.000977531 0.000483513 0)
(-0.00109637 0.000285413 0)
(-0.00115127 6.79481e-05 0)
(-0.00113875 -0.000151358 0)
(-0.00106008 -0.000358729 0)
(-0.000920332 -0.000543605 0)
(-0.000727518 -0.000698139 0)
(-0.000491877 -0.000816715 0)
(-0.000225249 -0.00089549 0)
(5.949e-05 -0.000932028 0)
(0.000348728 -0.000925056 0)
(0.000628686 -0.000874421 0)
(0.000885733 -0.000781092 0)
(0.0011068 -0.00064732 0)
(0.00127989 -0.000476974 0)
(0.00139464 -0.00027596 0)
(0.00144306 -5.27242e-05 0)
(0.00142033 0.000181233 0)
(0.00132577 0.000410848 0)
(0.0011639 0.000616844 0)
(0.000945522 0.000775246 0)
(0.000688938 0.000857188 0)
(0.000420548 0.000829244 0)
(0.000178916 0.00065439 0)
(1.71359e-05 0.000293673 0)
(-1.39592e-05 0.000345756 0)
(-0.000146737 0.000752516 0)
(-0.000343973 0.000935845 0)
(-0.000560256 0.000947089 0)
(-0.000762489 0.000831412 0)
(-0.000928134 0.000628314 0)
(-0.00104172 0.000371469 0)
(-0.00109431 8.88881e-05 0)
(-0.00108242 -0.000196715 0)
(-0.00100711 -0.000467312 0)
(-0.000873139 -0.000708968 0)
(-0.000688114 -0.000911239 0)
(-0.000461841 -0.00106658 0)
(-0.00020572 -0.00116979 0)
(6.78171e-05 -0.00121756 0)
(0.000345593 -0.00120816 0)
(0.000614274 -0.00114139 0)
(0.000860671 -0.00101863 0)
(0.00107217 -0.000842937 0)
(0.00123723 -0.000619565 0)
(0.00134595 -0.000356432 0)
(0.00139073 -6.47669e-05 0)
(0.00136708 0.000240263 0)
(0.00127453 0.00053895 0)
(0.00111757 0.000806332 0)
(0.00090668 0.00101165 0)
(0.000659521 0.00111809 0)
(0.000401549 0.00108282 0)
(0.00016995 0.000857409 0)
(1.59131e-05 0.000387618 0)
(-1.20539e-05 0.000419849 0)
(-0.000129792 0.000912483 0)
(-0.000306182 0.00113412 0)
(-0.000500407 0.00114782 0)
(-0.000682516 0.00100817 0)
(-0.000831968 0.000762569 0)
(-0.000934609 0.000451422 0)
(-0.000982196 0.000108471 0)
(-0.000971429 -0.000238738 0)
(-0.000903167 -0.000568197 0)
(-0.000781618 -0.000862796 0)
(-0.00061364 -0.00110963 0)
(-0.000408126 -0.00129931 0)
(-0.000175456 -0.00142533 0)
(7.30183e-05 -0.00148351 0)
(0.000325248 -0.00147171 0)
(0.000569036 -0.0013897 0)
(0.000792316 -0.0012392 0)
(0.000983582 -0.0010241 0)
(0.00113233 -0.000750981 0)
(0.00122958 -0.000429681 0)
(0.0012685 -7.40638e-05 0)
(0.00124513 0.000297253 0)
(0.00115916 0.000660203 0)
(0.00101483 0.000984522 0)
(0.000821831 0.00123314 0)
(0.000596406 0.00136183 0)
(0.000361911 0.00131896 0)
(0.000152251 0.00104551 0)
(1.39226e-05 0.000473828 0)
(-9.84891e-06 0.000483362 0)
(-0.00010844 0.00105096 0)
(-0.0002574 0.00130673 0)
(-0.000422179 0.00132322 0)
(-0.000577173 0.00116303 0)
(-0.000704642 0.000880422 0)
(-0.0007923 0.000521726 0)
(-0.000832928 0.000125736 0)
(-0.000823562 -0.000275723 0)
(-0.000764837 -0.000657109 0)
(-0.000660297 -0.000998474 0)
(-0.00051579 -0.00128471 0)
(-0.000338957 -0.00150475 0)
(-0.000138757 -0.0016509 0)
(7.49922e-05 -0.00171822 0)
(0.000291865 -0.00170416 0)
(0.000501295 -0.00160846 0)
(0.000692827 -0.00143318 0)
(0.000856511 -0.00118296 0)
(0.000983293 -0.000865569 0)
(0.00106546 -0.000492609 0)
(0.0010972 -8.03052e-05 0)
(0.00107516 0.000349643 0)
(0.000999224 0.000769293 0)
(0.000873204 0.00114366 0)
(0.000705637 0.00143009 0)
(0.000510726 0.00157777 0)
(0.000308799 0.00152731 0)
(0.000129106 0.00121052 0)
(1.15328e-05 0.000548765 0)
(-7.53841e-06 0.000534676 0)
(-8.48362e-05 0.00116388 0)
(-0.000202621 0.0014483 0)
(-0.000333554 0.00146764 0)
(-0.000457133 0.00129089 0)
(-0.000558984 0.000977921 0)
(-0.000629075 0.00057994 0)
(-0.000661453 0.000139962 0)
(-0.000653602 -0.000306604 0)
(-0.000605943 -0.000731248 0)
(-0.000521275 -0.00111162 0)
(-0.000404283 -0.00143074 0)
(-0.000261138 -0.00167613 0)
(-9.91102e-05 -0.00183905 0)
(7.3805e-05 -0.0019139 0)
(0.000249121 -0.00189779 0)
(0.000418229 -0.00179045 0)
(0.000572605 -0.00159421 0)
(0.00070415 -0.00131437 0)
(0.000805517 -0.000959717 0)
(0.000870483 -0.000543358 0)
(0.000894389 -8.35342e-05 0)
(0.000874617 0.000395447 0)
(0.000811186 0.000862376 0)
(0.000707346 0.00127831 0)
(0.000570215 0.00159586 0)
(0.000411501 0.00175873 0)
(0.00024784 0.00170108 0)
(0.000102982 0.00134732 0)
(9.00541e-06 0.000610356 0)
(-5.24779e-06 0.000573136 0)
(-6.05665e-05 0.00124932 0)
(-0.00014567 0.00155605 0)
(-0.000240803 0.00157803 0)
(-0.000330936 0.0013889 0)
(-0.000405374 0.00105279 0)
(-0.000456578 0.000624616 0)
(-0.000480014 0.000150683 0)
(-0.000473699 -0.000330811 0)
(-0.000437853 -0.000789027 0)
(-0.0003745 -0.00119973 0)
(-0.00028709 -0.00154443 0)
(-0.000180208 -0.00180951 0)
(-5.92923e-05 -0.00198543 0)
(6.96444e-05 -0.00206604 0)
(0.000200224 -0.00204816 0)
(0.000325969 -0.00193152 0)
(0.000440461 -0.00171869 0)
(0.000537619 -0.00141546 0)
(0.000611944 -0.00103149 0)
(0.000658808 -0.000581064 0)
(0.000674791 -8.40282e-05 0)
(0.000658032 0.000433239 0)
(0.00060867 0.000936944 0)
(0.000529292 0.00138502 0)
(0.0004254 0.0017264 0)
(0.000305916 0.00190046 0)
(0.000183415 0.00183645 0)
(7.5708e-05 0.00145325 0)
(6.48467e-06 0.00065759 0)
(-3.06182e-06 0.000598781 0)
(-3.67946e-05 0.00130698 0)
(-8.9437e-05 0.00162928 0)
(-0.000148764 0.00165343 0)
(-0.000205265 0.00145608 0)
(-0.000252026 0.00110417 0)
(-0.00028409 0.000655178 0)
(-0.000298416 0.000157682 0)
(-0.00029361 -0.000348153 0)
(-0.000269714 -0.000829843 0)
(-0.000227976 -0.00126179 0)
(-0.000170604 -0.00162444 0)
(-0.000100574 -0.00190333 0)
(-2.14503e-05 -0.00208831 0)
(6.27893e-05 -0.00217283 0)
(0.000147926 -0.00215352 0)
(0.000229661 -0.00203009 0)
(0.000303737 -0.00180526 0)
(0.000366138 -0.00148525 0)
(0.000413257 -0.00108032 0)
(0.000442089 -0.000605632 0)
(0.000450463 -8.21919e-05 0)
(0.000437268 0.000462129 0)
(0.000402735 0.000991679 0)
(0.00034872 0.00146216 0)
(0.000279003 0.00181989 0)
(0.000199597 0.00200121 0)
(0.000118907 0.00193203 0)
(4.8626e-05 0.00152749 0)
(4.03285e-06 0.000690311 0)
(-1.03836e-06 0.000612156 0)
(-1.43622e-05 0.00133774 0)
(-3.60578e-05 0.00166887 0)
(-6.10616e-05 0.00169456 0)
(-8.51893e-05 0.00149294 0)
(-0.00010523 0.00113238 0)
(-0.000118769 0.000671776 0)
(-0.000124258 0.000160968 0)
(-0.000120916 -0.000358735 0)
(-0.000108636 -0.000853881 0)
(-8.79193e-05 -0.00129807 0)
(-5.97718e-05 -0.00167108 0)
(-2.56054e-05 -0.00195792 0)
(1.28429e-05 -0.00214805 0)
(5.35961e-05 -0.00223467 0)
(9.45417e-05 -0.00221429 0)
(0.000133518 -0.00208658 0)
(0.000168384 -0.00185441 0)
(0.000197141 -0.00152423 0)
(0.000218036 -0.0011067 0)
(0.000229652 -0.000617546 0)
(0.000231021 -7.84836e-05 0)
(0.000221741 0.00048171 0)
(0.000202096 0.00102626 0)
(0.000173189 0.00150954 0)
(0.000137066 0.00187632 0)
(9.68619e-05 0.00206123 0)
(5.68588e-05 0.00198831 0)
(2.27339e-05 0.00157064 0)
(1.7208e-06 0.000708994 0)
(7.84774e-07 0.000614161 0)
(6.15001e-06 0.0013434 0)
(1.29672e-05 0.00167691 0)
(1.97127e-05 0.00170343 0)
(2.56282e-05 0.00150114 0)
(3.04352e-05 0.00113865 0)
(3.4134e-05 0.000675128 0)
(3.68551e-05 0.000160736 0)
(3.87812e-05 -0.000362872 0)
(4.01312e-05 -0.000861931 0)
(4.10923e-05 -0.00130976 0)
(4.17892e-05 -0.00168588 0)
(4.22773e-05 -0.00197508 0)
(4.25365e-05 -0.00216665 0)
(4.24808e-05 -0.00225366 0)
(4.19762e-05 -0.00223257 0)
(4.08759e-05 -0.00210304 0)
(3.90454e-05 -0.001868 0)
(3.63933e-05 -0.00153402 0)
(3.29044e-05 -0.00111195 0)
(2.86547e-05 -0.000617742 0)
(2.38057e-05 -7.33984e-05 0)
(1.8596e-05 0.000491966 0)
(1.33294e-05 0.00104117 0)
(8.36307e-06 0.00152813 0)
(4.08355e-06 0.00189712 0)
(8.85893e-07 0.00208229 0)
(-9.17065e-07 0.00200716 0)
(-1.25353e-06 0.00158432 0)
(-3.70387e-07 0.000714477 0)
(2.38702e-06 0.000605933 0)
(2.43792e-05 0.00132635 0)
(5.6674e-05 0.0016563 0)
(9.186e-05 0.00168291 0)
(0.000124745 0.0014832 0)
(0.000151883 0.00112487 0)
(0.000171061 0.000666374 0)
(0.000181111 0.000157329 0)
(0.000181664 -0.000361021 0)
(0.000173019 -0.000855204 0)
(0.000155975 -0.00129875 0)
(0.000131678 -0.00167129 0)
(0.000101519 -0.0019577 0)
(6.7042e-05 -0.00214728 0)
(2.98853e-05 -0.00223314 0)
(-8.278e-06 -0.00221171 0)
(-4.57567e-05 -0.00208266 0)
(-8.08494e-05 -0.00184893 0)
(-0.000111898 -0.0015171 0)
(-0.000137334 -0.00109798 0)
(-0.000155731 -0.00060746 0)
(-0.000165913 -6.74244e-05 0)
(-0.000167072 0.000493202 0)
(-0.000158912 0.00103751 0)
(-0.000141779 0.00151977 0)
(-0.000116818 0.00188477 0)
(-8.61786e-05 0.00206726 0)
(-5.32167e-05 0.00199148 0)
(-2.28892e-05 0.00157101 0)
(-2.22593e-06 0.000707894 0)
(3.76072e-06 0.000588743 0)
(4.01369e-05 0.00128934 0)
(9.45388e-05 0.00161044 0)
(0.000154433 0.00163645 0)
(0.000210772 0.00144216 0)
(0.000257337 0.00109337 0)
(0.000289952 0.000646953 0)
(0.000306296 0.000151196 0)
(0.000305512 -0.000353731 0)
(0.000287961 -0.000835201 0)
(0.000254964 -0.00126738 0)
(0.000208562 -0.00163039 0)
(0.000151323 -0.00190941 0)
(8.61671e-05 -0.00209397 0)
(1.62586e-05 -0.0021773 0)
(-5.51154e-05 -0.0021559 0)
(-0.000124629 -0.00202944 0)
(-0.000188966 -0.00180082 0)
(-0.000244915 -0.0014765 0)
(-0.000289505 -0.00106708 0)
(-0.000320128 -0.00058811 0)
(-0.000334723 -6.09887e-05 0)
(-0.000331998 0.00048603 0)
(-0.000311673 0.00101692 0)
(-0.000274731 0.00148706 0)
(-0.000223702 0.00184258 0)
(-0.00016304 0.00201982 0)
(-9.93009e-05 0.00194489 0)
(-4.19051e-05 0.00153364 0)
(-3.85993e-06 0.000690635 0)
(4.90691e-06 0.000563925 0)
(5.33736e-05 0.00123529 0)
(0.000126402 0.00154299 0)
(0.000207122 0.00156781 0)
(0.000283219 0.00138137 0)
(0.000346141 0.00104674 0)
(0.000390033 0.000618467 0)
(0.000411575 0.000142842 0)
(0.000409488 -0.00034161 0)
(0.000384184 -0.000803588 0)
(0.000337429 -0.00121829 0)
(0.000272019 -0.00156659 0)
(0.000191527 -0.00183426 0)
(0.000100055 -0.00201118 0)
(2.06913e-06 -0.0020908 0)
(-9.77476e-05 -0.00206977 0)
(-0.000194649 -0.00194778 0)
(-0.000283932 -0.00172762 0)
(-0.000361065 -0.00141552 0)
(-0.000421871 -0.00102171 0)
(-0.000462736 -0.000561158 0)
(-0.000480853 -5.44588e-05 0)
(-0.000474521 0.000471236 0)
(-0.000443481 0.000981307 0)
(-0.000389281 0.00143289 0)
(-0.000315674 0.0017742 0)
(-0.000229107 0.00194402 0)
(-0.000138838 0.00187136 0)
(-5.81676e-05 0.00147528 0)
(-5.24469e-06 0.000664114 0)
(5.83784e-06 0.000532796 0)
(6.41621e-05 0.00116713 0)
(0.000152406 0.00145766 0)
(0.000250138 0.00148077 0)
(0.00034234 0.00130422 0)
(0.000418559 0.000987629 0)
(0.000471571 0.000582561 0)
(0.000497219 0.000132788 0)
(0.000493871 -0.000325291 0)
(0.000461981 -0.000762095 0)
(0.00040368 -0.00115418 0)
(0.000322387 -0.00148344 0)
(0.000222504 -0.00173641 0)
(0.000109122 -0.0019035 0)
(-1.22139e-05 -0.00197847 0)
(-0.000135662 -0.00195814 0)
(-0.000255282 -0.00184223 0)
(-0.000365205 -0.00163339 0)
(-0.000459806 -0.00133753 0)
(-0.000533916 -0.000964363 0)
(-0.000583086 -0.00052807 0)
(-0.000603895 -4.81448e-05 0)
(-0.000594309 0.000449716 0)
(-0.000554099 0.000932746 0)
(-0.000485299 0.00136036 0)
(-0.000392703 0.00168348 0)
(-0.000284375 0.00184411 0)
(-0.000171876 0.00177496 0)
(-7.17356e-05 0.00139913 0)
(-6.38174e-06 0.000629726 0)
(6.57791e-06 0.000496599 0)
(7.26817e-05 0.00108764 0)
(0.000172932 0.00135797 0)
(0.000284085 0.00137898 0)
(0.000388949 0.00121398 0)
(0.000475564 0.000918563 0)
(0.00053564 0.00054082 0)
(0.00056436 0.000121535 0)
(0.000559808 -0.000305386 0)
(0.000522467 -0.000712406 0)
(0.000454757 -0.0010777 0)
(0.000360595 -0.00138442 0)
(0.00024504 -0.00161998 0)
(0.000113985 -0.00177546 0)
(-2.61502e-05 -0.00184504 0)
(-0.000168593 -0.00182572 0)
(-0.000306443 -0.00171724 0)
(-0.000432886 -0.00152209 0)
(-0.000541415 -0.0012458 0)
(-0.000626067 -0.00089742 0)
(-0.000681727 -0.000490175 0)
(-0.000704488 -4.22325e-05 0)
(-0.000692054 0.000422464 0)
(-0.000644237 0.000873361 0)
(-0.000563476 0.00127258 0)
(-0.000455388 0.00157429 0)
(-0.000329312 0.00172432 0)
(-0.000198729 0.00165969 0)
(-8.27831e-05 0.00130837 0)
(-7.31831e-06 0.000588903 0)
(7.15502e-06 0.000456471 0)
(7.91859e-05 0.000999349 0)
(0.000188536 0.00124718 0)
(0.00030984 0.00126583 0)
(0.000424239 0.00111368 0)
(0.000518613 0.000841906 0)
(0.000583881 0.000494712 0)
(0.000614736 0.000109548 0)
(0.000609047 -0.000282479 0)
(0.000567316 -0.000656117 0)
(0.000492187 -0.000991372 0)
(0.000387958 -0.00127279 0)
(0.000260192 -0.00148885 0)
(0.000115401 -0.00163136 0)
(-3.93063e-05 -0.00169497 0)
(-0.000196434 -0.00167693 0)
(-0.000348352 -0.00157699 0)
(-0.000487515 -0.00139745 0)
(-0.000606724 -0.00114338 0)
(-0.000699406 -0.000823087 0)
(-0.000759932 -0.000448693 0)
(-0.000784019 -3.68596e-05 0)
(-0.000769186 0.000390447 0)
(-0.000715287 0.00080517 0)
(-0.000625074 0.00117249 0)
(-0.000504763 0.00145026 0)
(-0.000364729 0.00158859 0)
(-0.000219913 0.00152927 0)
(-9.14993e-05 0.00120585 0)
(-8.0635e-06 0.000542908 0)
(7.59139e-06 0.000413402 0)
(8.39564e-05 0.000904493 0)
(0.000199873 0.00112816 0)
(0.00032844 0.00114431 0)
(0.000449611 0.00100604 0)
(0.000549422 0.000759785 0)
(0.000618232 0.000445558 0)
(0.000650397 9.72273e-05 0)
(0.000643648 -0.000257121 0)
(0.0005985 -0.000594701 0)
(0.000517757 -0.000897488 0)
(0.000406007 -0.00115158 0)
(0.000269175 -0.00134658 0)
(0.000114213 -0.0014751 0)
(-5.12601e-05 -0.00153234 0)
(-0.0002192 -0.00151581 0)
(-0.000381441 -0.00142529 0)
(-0.000529906 -0.00126284 0)
(-0.000656895 -0.00103303 0)
(-0.000755379 -0.000743335 0)
(-0.000819358 -0.000404676 0)
(-0.000844282 -3.20751e-05 0)
(-0.000827536 0.000354643 0)
(-0.000769008 0.000730131 0)
(-0.000671657 0.0010629 0)
(-0.000542132 0.00131481 0)
(-0.000391613 0.00144052 0)
(-0.00023607 0.00138717 0)
(-9.81702e-05 0.00109421 0)
(-8.63777e-06 0.000492869 0)
(7.90569e-06 0.000368222 0)
(8.72665e-05 0.000804998 0)
(0.000207601 0.00100339 0)
(0.000340943 0.00101705 0)
(0.000466481 0.000893458 0)
(0.000569709 0.000674058 0)
(0.000640635 0.0003945 0)
(0.000673408 8.49012e-05 0)
(0.000665688 -0.000229819 0)
(0.000618015 -0.000529477 0)
(0.000533284 -0.000798112 0)
(0.000416279 -0.00102345 0)
(0.000273185 -0.00119631 0)
(0.000111245 -0.00131017 0)
(-6.15887e-05 -0.00136078 0)
(-0.000236895 -0.00134596 0)
(-0.000406143 -0.00126551 0)
(-0.000560895 -0.00112123 0)
(-0.000693111 -0.000917147 0)
(-0.000795459 -0.000659855 0)
(-0.000861694 -0.000358999 0)
(-0.00088709 -2.78648e-05 0)
(-0.000868947 0.000315984 0)
(-0.000807153 0.000650062 0)
(-0.000704793 0.0009464 0)
(-0.000568833 0.00117101 0)
(-0.00041094 0.00128341 0)
(-0.000247784 0.00123645 0)
(-0.000103094 0.00097582 0)
(-9.09057e-06 0.00043981 0)
(8.12322e-06 0.000321609 0)
(8.93563e-05 0.000702504 0)
(0.000212275 0.000875015 0)
(0.000348241 0.000886297 0)
(0.000476045 0.000777967 0)
(0.000580926 0.000586323 0)
(0.000652738 0.000342523 0)
(0.000685541 7.28428e-05 0)
(0.00067696 -0.000201044 0)
(0.000627574 -0.000461633 0)
(0.000540336 -0.000695093 0)
(0.000420131 -0.000890813 0)
(0.0002733 -0.00104088 0)
(0.000107251 -0.00113968 0)
(-6.98819e-05 -0.00118354 0)
(-0.000249468 -0.00117057 0)
(-0.000422763 -0.00110061 0)
(-0.000581125 -0.0009752 0)
(-0.000716318 -0.000797799 0)
(-0.000820842 -0.000574079 0)
(-0.000888316 -0.000312361 0)
(-0.000913924 -2.41359e-05 0)
(-0.000894904 0.000275376 0)
(-0.00083113 0.000566645 0)
(-0.00072575 0.000825302 0)
(-0.000585925 0.00102164 0)
(-0.000423511 0.00112026 0)
(-0.000255544 0.00107981 0)
(-0.00010646 0.000852672 0)
(-9.43264e-06 0.000384553 0)
(8.27395e-06 0.000274124 0)
(9.03812e-05 0.000598419 0)
(0.000214209 0.000744924 0)
(0.000350846 0.000754033 0)
(0.000479017 0.000661365 0)
(0.000583963 0.00049798 0)
(0.000655564 0.00029048 0)
(0.000687894 6.12634e-05 0)
(0.000678596 -0.000171254 0)
(0.000628287 -0.000392265 0)
(0.00053995 -0.000590109 0)
(0.000418493 -0.000755849 0)
(0.0002703 -0.00088286 0)
(0.000102834 -0.000966438 0)
(-7.57242e-05 -0.00100352 0)
(-0.000256692 -0.000992518 0)
(-0.000431269 -0.000933285 0)
(-0.000590751 -0.000827102 0)
(-0.000726851 -0.000676845 0)
(-0.00083202 -0.000487258 0)
(-0.000899843 -0.000265322 0)
(-0.000925469 -2.07032e-05 0)
(-0.000906107 0.000233756 0)
(-0.000841612 0.000481511 0)
(-0.000735149 0.000701815 0)
(-0.000593871 0.000869302 0)
(-0.000429661 0.000953802 0)
(-0.000259625 0.000919831 0)
(-0.00010841 0.000726653 0)
(-9.68709e-06 0.000327849 0)
(8.37026e-06 0.000226287 0)
(9.03209e-05 0.000494057 0)
(0.000213324 0.000614892 0)
(0.000348663 0.000622143 0)
(0.000475322 0.000545346 0)
(0.000578778 0.000410314 0)
(0.000649103 0.000239125 0)
(0.00068051 5.03096e-05 0)
(0.000670693 -0.000140936 0)
(0.000620295 -0.00032248 0)
(0.000532312 -0.00048482 0)
(0.000411604 -0.000620694 0)
(0.000264488 -0.000724743 0)
(9.83569e-05 -0.000793183 0)
(-7.86986e-05 -0.000823554 0)
(-0.000258094 -0.000814572 0)
(-0.000431131 -0.000766105 0)
(-0.0005892 -0.000679168 0)
(-0.000724105 -0.00055606 0)
(-0.000828378 -0.000400598 0)
(-0.000895659 -0.000218427 0)
(-0.000921125 -1.73958e-05 0)
(-0.000901982 0.000192015 0)
(-0.000838067 0.000396213 0)
(-0.000732499 0.000578067 0)
(-0.000592238 0.000716592 0)
(-0.000429018 0.000786697 0)
(-0.000259763 0.000758936 0)
(-0.000108852 0.000599563 0)
(-9.8572e-06 0.000270397 0)
(8.38196e-06 0.000178694 0)
(8.88658e-05 0.000390892 0)
(0.000208957 0.000486858 0)
(0.000340695 0.000492635 0)
(0.000463703 0.000431682 0)
(0.000563953 0.000324657 0)
(0.000631854 0.000189222 0)
(0.000661866 4.01183e-05 0)
(0.0006518 -0.000110624 0)
(0.000602316 -0.000253469 0)
(0.000516371 -0.000381015 0)
(0.000398715 -0.000487643 0)
(0.000255481 -0.000569225 0)
(9.38424e-05 -0.000622862 0)
(-7.8357e-05 -0.00064668 0)
(-0.000252803 -0.000639698 0)
(-0.000421073 -0.000601801 0)
(-0.000574828 -0.000533748 0)
(-0.000706124 -0.000437282 0)
(-0.000807712 -0.000315318 0)
(-0.000873396 -0.000172194 0)
(-0.000898452 -1.39825e-05 0)
(-0.000880125 0.000151133 0)
(-0.000818219 0.000312446 0)
(-0.000715682 0.000456382 0)
(-0.000579238 0.000566277 0)
(-0.00042024 0.000621948 0)
(-0.000255042 0.000599927 0)
(-0.000107346 0.000473499 0)
(-9.89902e-06 0.000213039 0)
(8.21326e-06 0.00013221 0)
(8.5256e-05 0.000290908 0)
(0.000199572 0.000363271 0)
(0.000324689 0.000367929 0)
(0.000441326 0.000322456 0)
(0.000536214 0.000242542 0)
(0.000600276 0.000141613 0)
(0.000628325 3.07746e-05 0)
(0.000618367 -8.10076e-05 0)
(0.000571089 -0.000186686 0)
(0.00048935 -0.000280858 0)
(0.000377687 -0.000359465 0)
(0.000241915 -0.000419545 0)
(8.88053e-05 -0.00045903 0)
(-7.42496e-05 -0.00047659 0)
(-0.000239425 -0.000471526 0)
(-0.000398795 -0.000443743 0)
(-0.000544507 -0.00039377 0)
(-0.000669072 -0.000322831 0)
(-0.000765628 -0.000232992 0)
(-0.000828279 -0.000127353 0)
(-0.000852502 -1.0307e-05 0)
(-0.000835631 0.000112155 0)
(-0.000777401 0.000232116 0)
(-0.000680478 0.000339444 0)
(-0.000551239 0.000421531 0)
(-0.00040046 0.000463078 0)
(-0.000243547 0.000446263 0)
(-0.000102964 0.000351202 0)
(-9.70287e-06 0.000156969 0)
(7.6525e-06 8.83038e-05 0)
(7.80938e-05 0.000197095 0)
(0.000182481 0.000247622 0)
(0.000296761 0.000251383 0)
(0.000403264 0.000220514 0)
(0.00048981 0.000166055 0)
(0.000548081 9.74515e-05 0)
(0.000573393 2.23905e-05 0)
(0.000564036 -5.30353e-05 0)
(0.000520738 -0.000124107 0)
(0.000446177 -0.000187262 0)
(0.000344536 -0.000239867 0)
(0.000221121 -0.00028002 0)
(8.20611e-05 -0.000306399 0)
(-6.59723e-05 -0.000318161 0)
(-0.000215939 -0.000314856 0)
(-0.000360708 -0.000296414 0)
(-0.000493206 -0.000263157 0)
(-0.000606664 -0.000215849 0)
(-0.000694844 -0.000155797 0)
(-0.000752352 -8.49859e-05 0)
(-0.000775008 -6.28034e-06 0)
(-0.000760284 7.63576e-05 0)
(-0.000707801 0.000157631 0)
(-0.000619907 0.000230652 0)
(-0.000502354 0.000286583 0)
(-0.000365015 0.00031477 0)
(-0.00022206 0.000302647 0)
(-9.40305e-05 0.00023661 0)
(-9.00949e-06 0.000104074 0)
(6.37033e-06 4.92931e-05 0)
(6.52934e-05 0.000113743 0)
(0.000153754 0.000144623 0)
(0.000251124 0.000147423 0)
(0.000342013 0.000129577 0)
(0.000415806 9.79232e-05 0)
(0.00046536 5.82235e-05 0)
(0.00048675 1.50445e-05 0)
(0.000478663 -2.80999e-05 0)
(0.000441862 -6.85568e-05 0)
(0.000378719 -0.000104362 0)
(0.000292837 -0.000134093 0)
(0.000188723 -0.00015674 0)
(7.1531e-05 -0.000171608 0)
(-5.31652e-05 -0.000178259 0)
(-0.000179507 -0.000176456 0)
(-0.000301559 -0.000166151 0)
(-0.000413425 -0.000147501 0)
(-0.000509434 -0.000120896 0)
(-0.000584323 -8.70101e-05 0)
(-0.000633497 -4.69002e-05 0)
(-0.000653332 -2.11905e-06 0)
(-0.000641539 4.51539e-05 0)
(-0.000597602 9.19373e-05 0)
(-0.000523423 0.000134214 0)
(-0.000423804 0.000166765 0)
(-0.000307217 0.000183055 0)
(-0.000186054 0.000175301 0)
(-7.81582e-05 0.000135261 0)
(-7.45618e-06 5.73289e-05 0)
(3.7007e-06 1.97808e-05 0)
(4.43087e-05 4.83839e-05 0)
(0.000108453 6.25431e-05 0)
(0.000180067 6.40867e-05 0)
(0.000247079 5.6701e-05 0)
(0.00030135 4.36119e-05 0)
(0.000337628 2.73835e-05 0)
(0.000353179 9.94237e-06 0)
(0.000347235 -7.30434e-06 0)
(0.000320519 -2.33426e-05 0)
(0.000274876 -3.74446e-05 0)
(0.000212978 -4.90958e-05 0)
(0.000138094 -5.79405e-05 0)
(5.39159e-05 -6.37395e-05 0)
(-3.55978e-05 -6.63457e-05 0)
(-0.000126312 -6.56768e-05 0)
(-0.000214035 -6.17109e-05 0)
(-0.000294592 -5.44951e-05 0)
(-0.000363942 -4.41528e-05 0)
(-0.000418302 -3.09106e-05 0)
(-0.000454319 -1.51408e-05 0)
(-0.000469272 2.59661e-06 0)
(-0.000461338 2.15107e-05 0)
(-0.000429961 4.04622e-05 0)
(-0.000376287 5.77452e-05 0)
(-0.000303673 7.12783e-05 0)
(-0.000218428 7.80438e-05 0)
(-0.00013005 7.43937e-05 0)
(-5.24858e-05 5.62577e-05 0)
(-4.26343e-06 2.21744e-05 0)
(6.47833e-08 2.75405e-06 0)
(1.50113e-05 6.81675e-06 0)
(4.27656e-05 8.5391e-06 0)
(7.45026e-05 8.67439e-06 0)
(0.000104185 7.88667e-06 0)
(0.000128038 6.60197e-06 0)
(0.000143827 5.10766e-06 0)
(0.000150521 3.58343e-06 0)
(0.000147946 2.13861e-06 0)
(0.000136544 8.37684e-07 0)
(0.000117191 -2.78806e-07 0)
(9.10693e-05 -1.18462e-06 0)
(5.95729e-05 -1.86372e-06 0)
(2.42417e-05 -2.30653e-06 0)
(-1.3292e-05 -2.50892e-06 0)
(-5.13408e-05 -2.46732e-06 0)
(-8.81915e-05 -2.17925e-06 0)
(-0.00012213 -1.64485e-06 0)
(-0.000151484 -8.64606e-07 0)
(-0.000174665 1.55372e-07 0)
(-0.000190232 1.39633e-06 0)
(-0.000196955 2.8293e-06 0)
(-0.000193929 4.42553e-06 0)
(-0.000180821 6.11497e-06 0)
(-0.000157886 7.70422e-06 0)
(-0.000126397 9.07046e-06 0)
(-8.91191e-05 9.82155e-06 0)
(-5.04411e-05 9.48192e-06 0)
(-1.73399e-05 7.31249e-06 0)
(5.40973e-08 2.64953e-06 0)
)
;

boundaryField
{
    floor
    {
        type            noSlip;
    }
    ceiling
    {
        type            noSlip;
    }
    fixedWalls
    {
        type            noSlip;
    }
    frontAndBack
    {
        type            empty;
    }
}


// ************************************************************************* //
