/*--------------------------------*- C++ -*----------------------------------*\
| =========                 |                                                 |
| \\      /  F ield         | OpenFOAM: The Open Source CFD Toolbox           |
|  \\    /   O peration     | Version:  2412                                  |
|   \\  /    A nd           | Website:  www.openfoam.com                      |
|    \\/     M anipulation  |                                                 |
\*---------------------------------------------------------------------------*/
FoamFile
{
    version     2.0;
    format      ascii;
    arch        "LSB;label=32;scalar=64";
    class       volScalarField;
    location    "400";
    object      p;
}
// * * * * * * * * * * * * * * * * * * * * * * * * * * * * * * * * * * * * * //

dimensions      [0 2 -2 0 0 0 0];

internalField   nonuniform List<scalar> 
900
(
0
-1.50768e-05
-1.80674e-05
-6.2061e-06
2.02645e-05
5.91207e-05
0.000107117
0.000160638
0.000216003
0.000269669
0.000318378
0.000359283
0.000390035
0.000408847
0.000414558
0.000406637
0.000385193
0.000351008
0.000305505
0.000250731
0.000189296
0.000124298
5.92387e-05
-2.13054e-06
-5.59503e-05
-9.85024e-05
-0.000126588
-0.000138325
-0.000134075
-0.000118494
-0.00181064
-0.00182542
-0.00182793
-0.00181692
-0.0017937
-0.00176013
-0.0017189
-0.00167302
-0.00162557
-0.00157959
-0.00153787
-0.0015029
-0.00147673
-0.00146093
-0.00145652
-0.00146395
-0.00148314
-0.00151337
-0.00155338
-0.00160136
-0.00165501
-0.00171164
-0.00176822
-0.00182156
-0.00186844
-0.00190577
-0.00193092
-0.00194221
-0.00193863
-0.00192182
-0.00544486
-0.00546268
-0.00546698
-0.00545805
-0.00543828
-0.00540947
-0.00537404
-0.00533457
-0.00529374
-0.00525416
-0.00521827
-0.00518824
-0.00516588
-0.00515257
-0.00514919
-0.00515615
-0.00517336
-0.00520018
-0.0052355
-0.00527769
-0.00532474
-0.00537429
-0.00542369
-0.0054702
-0.00551102
-0.00554347
-0.00556516
-0.00557435
-0.00556863
-0.00554779
-0.0108907
-0.0109114
-0.0109181
-0.0109117
-0.0108952
-0.0108707
-0.0108401
-0.0108061
-0.0107708
-0.0107365
-0.0107055
-0.0106796
-0.0106604
-0.0106492
-0.0106466
-0.0106531
-0.0106685
-0.0106924
-0.0107236
-0.0107609
-0.0108023
-0.0108458
-0.0108891
-0.0109298
-0.0109653
-0.0109933
-0.0110114
-0.0110178
-0.0110093
-0.0109846
-0.0181233
-0.0181456
-0.018154
-0.0181499
-0.0181366
-0.0181158
-0.0180898
-0.0180605
-0.0180302
-0.0180008
-0.0179741
-0.0179519
-0.0179355
-0.017926
-0.0179241
-0.0179301
-0.0179439
-0.017965
-0.0179925
-0.0180252
-0.0180615
-0.0180995
-0.0181372
-0.0181725
-0.0182032
-0.0182271
-0.0182418
-0.0182456
-0.0182349
-0.0182081
-0.0271084
-0.0271306
-0.02714
-0.0271378
-0.0271272
-0.0271099
-0.0270879
-0.0270631
-0.0270372
-0.0270121
-0.0269894
-0.0269705
-0.0269566
-0.0269488
-0.0269474
-0.0269529
-0.0269651
-0.0269836
-0.0270076
-0.0270361
-0.0270676
-0.0271005
-0.0271331
-0.0271635
-0.0271897
-0.0272097
-0.0272215
-0.0272232
-0.0272112
-0.0271842
-0.0378028
-0.0378238
-0.0378333
-0.0378324
-0.0378242
-0.03781
-0.0377917
-0.0377709
-0.0377492
-0.0377281
-0.037709
-0.0376932
-0.0376816
-0.0376752
-0.0376743
-0.0376792
-0.0376899
-0.0377059
-0.0377267
-0.0377511
-0.0377781
-0.0378063
-0.0378341
-0.0378599
-0.0378819
-0.0378985
-0.0379076
-0.0379078
-0.0378957
-0.0378698
-0.0501562
-0.050175
-0.0501839
-0.0501839
-0.0501776
-0.0501663
-0.0501513
-0.0501343
-0.0501164
-0.050099
-0.0500834
-0.0500704
-0.050061
-0.0500559
-0.0500554
-0.0500598
-0.0500689
-0.0500826
-0.0501001
-0.0501207
-0.0501434
-0.0501671
-0.0501903
-0.0502118
-0.05023
-0.0502434
-0.0502504
-0.0502496
-0.0502381
-0.0502146
-0.0641116
-0.0641276
-0.0641354
-0.064136
-0.0641313
-0.0641224
-0.0641106
-0.064097
-0.0640828
-0.0640689
-0.0640564
-0.0640461
-0.0640387
-0.0640348
-0.0640347
-0.0640385
-0.0640462
-0.0640575
-0.0640719
-0.0640889
-0.0641075
-0.0641268
-0.0641457
-0.0641631
-0.0641777
-0.0641883
-0.0641935
-0.0641922
-0.0641819
-0.0641617
-0.0796068
-0.0796195
-0.079626
-0.0796267
-0.0796234
-0.0796167
-0.0796078
-0.0795975
-0.0795866
-0.079576
-0.0795665
-0.0795587
-0.0795532
-0.0795504
-0.0795506
-0.0795538
-0.07956
-0.0795691
-0.0795805
-0.0795939
-0.0796086
-0.0796237
-0.0796385
-0.0796521
-0.0796634
-0.0796715
-0.0796752
-0.0796737
-0.0796652
-0.0796487
-0.0965747
-0.096584
-0.0965889
-0.0965896
-0.0965874
-0.0965828
-0.0965765
-0.0965691
-0.0965614
-0.096554
-0.0965473
-0.0965418
-0.096538
-0.0965362
-0.0965366
-0.0965392
-0.096544
-0.0965509
-0.0965595
-0.0965695
-0.0965804
-0.0965916
-0.0966025
-0.0966124
-0.0966206
-0.0966264
-0.096629
-0.0966276
-0.096621
-0.0966085
-0.114945
-0.114951
-0.114954
-0.114954
-0.114953
-0.11495
-0.114946
-0.114942
-0.114937
-0.114932
-0.114928
-0.114925
-0.114923
-0.114922
-0.114923
-0.114925
-0.114928
-0.114933
-0.114939
-0.114945
-0.114953
-0.11496
-0.114967
-0.114974
-0.114979
-0.114983
-0.114985
-0.114983
-0.114979
-0.114971
-0.134643
-0.134646
-0.134647
-0.134648
-0.134647
-0.134646
-0.134644
-0.134642
-0.13464
-0.134639
-0.134637
-0.134636
-0.134635
-0.134635
-0.134635
-0.134637
-0.134639
-0.134642
-0.134645
-0.134649
-0.134653
-0.134656
-0.13466
-0.134664
-0.134666
-0.134668
-0.134669
-0.134668
-0.134666
-0.134662
-0.155595
-0.155595
-0.155595
-0.155595
-0.155595
-0.155595
-0.155596
-0.155596
-0.155597
-0.155597
-0.155598
-0.155598
-0.155599
-0.155599
-0.1556
-0.155601
-0.155602
-0.155603
-0.155603
-0.155604
-0.155605
-0.155606
-0.155606
-0.155607
-0.155607
-0.155607
-0.155607
-0.155607
-0.155607
-0.155606
-0.177725
-0.177721
-0.177719
-0.177719
-0.17772
-0.177722
-0.177724
-0.177727
-0.177729
-0.177732
-0.177735
-0.177737
-0.177739
-0.17774
-0.177741
-0.177741
-0.17774
-0.177739
-0.177738
-0.177736
-0.177734
-0.177732
-0.177729
-0.177727
-0.177725
-0.177723
-0.177723
-0.177723
-0.177725
-0.177728
-0.200955
-0.200949
-0.200946
-0.200945
-0.200947
-0.200949
-0.200953
-0.200958
-0.200963
-0.200967
-0.200972
-0.200975
-0.200978
-0.20098
-0.200981
-0.20098
-0.200979
-0.200976
-0.200973
-0.200968
-0.200963
-0.200958
-0.200953
-0.200948
-0.200944
-0.200941
-0.20094
-0.200941
-0.200944
-0.200951
-0.22521
-0.225202
-0.225198
-0.225197
-0.225199
-0.225203
-0.225208
-0.225215
-0.225221
-0.225228
-0.225234
-0.225239
-0.225242
-0.225245
-0.225245
-0.225244
-0.225242
-0.225238
-0.225232
-0.225225
-0.225218
-0.22521
-0.225202
-0.225195
-0.225189
-0.225185
-0.225183
-0.225185
-0.22519
-0.2252
-0.250418
-0.250407
-0.250402
-0.250401
-0.250403
-0.250408
-0.250415
-0.250423
-0.250431
-0.250439
-0.250447
-0.250453
-0.250457
-0.25046
-0.250461
-0.250459
-0.250456
-0.25045
-0.250443
-0.250434
-0.250424
-0.250414
-0.250404
-0.250395
-0.250387
-0.250381
-0.250379
-0.250381
-0.250387
-0.2504
-0.276505
-0.276492
-0.276486
-0.276485
-0.276488
-0.276494
-0.276502
-0.276512
-0.276522
-0.276531
-0.27654
-0.276547
-0.276552
-0.276555
-0.276556
-0.276554
-0.276549
-0.276542
-0.276533
-0.276523
-0.276511
-0.276498
-0.276486
-0.276475
-0.276465
-0.276459
-0.276456
-0.276457
-0.276465
-0.276481
-0.303403
-0.303389
-0.303383
-0.303382
-0.303385
-0.303392
-0.303401
-0.303412
-0.303424
-0.303434
-0.303444
-0.303452
-0.303458
-0.303462
-0.303462
-0.30346
-0.303454
-0.303446
-0.303436
-0.303423
-0.303409
-0.303395
-0.30338
-0.303367
-0.303356
-0.303348
-0.303344
-0.303346
-0.303355
-0.303373
-0.331049
-0.331033
-0.331026
-0.331025
-0.331029
-0.331037
-0.331048
-0.33106
-0.331073
-0.331085
-0.331096
-0.331105
-0.331111
-0.331115
-0.331115
-0.331112
-0.331106
-0.331097
-0.331085
-0.331071
-0.331055
-0.331038
-0.331022
-0.331007
-0.330994
-0.330985
-0.330981
-0.330982
-0.330992
-0.331011
-0.35938
-0.359364
-0.359356
-0.359355
-0.35936
-0.359369
-0.359381
-0.359394
-0.359409
-0.359422
-0.359434
-0.359444
-0.359451
-0.359455
-0.359456
-0.359452
-0.359445
-0.359435
-0.359421
-0.359405
-0.359387
-0.359369
-0.359351
-0.359334
-0.359319
-0.359309
-0.359304
-0.359305
-0.359316
-0.359336
-0.388341
-0.388324
-0.388316
-0.388316
-0.388322
-0.388332
-0.388345
-0.38836
-0.388376
-0.388391
-0.388404
-0.388415
-0.388423
-0.388427
-0.388427
-0.388423
-0.388415
-0.388404
-0.388389
-0.388371
-0.388352
-0.388331
-0.388311
-0.388292
-0.388276
-0.388264
-0.388258
-0.388259
-0.388269
-0.38829
-0.417881
-0.417864
-0.417857
-0.417857
-0.417864
-0.417875
-0.41789
-0.417907
-0.417924
-0.41794
-0.417955
-0.417967
-0.417975
-0.41798
-0.41798
-0.417976
-0.417967
-0.417954
-0.417938
-0.417918
-0.417897
-0.417874
-0.417852
-0.417831
-0.417813
-0.417799
-0.417792
-0.417792
-0.417802
-0.417824
-0.447955
-0.447938
-0.447931
-0.447933
-0.447941
-0.447954
-0.44797
-0.447989
-0.448008
-0.448026
-0.448042
-0.448055
-0.448064
-0.44807
-0.44807
-0.448065
-0.448056
-0.448042
-0.448024
-0.448002
-0.447979
-0.447954
-0.447929
-0.447906
-0.447886
-0.44787
-0.447861
-0.44786
-0.447869
-0.447891
-0.478523
-0.478507
-0.478502
-0.478505
-0.478514
-0.478529
-0.478547
-0.478568
-0.478589
-0.478609
-0.478627
-0.478641
-0.478652
-0.478658
-0.478658
-0.478653
-0.478643
-0.478627
-0.478608
-0.478584
-0.478558
-0.47853
-0.478503
-0.478477
-0.478455
-0.478437
-0.478426
-0.478424
-0.478432
-0.478452
-0.509552
-0.509538
-0.509534
-0.509539
-0.50955
-0.509567
-0.509588
-0.509611
-0.509634
-0.509657
-0.509677
-0.509693
-0.509705
-0.509712
-0.509712
-0.509707
-0.509696
-0.509679
-0.509657
-0.509631
-0.509602
-0.509572
-0.509541
-0.509513
-0.509487
-0.509467
-0.509454
-0.50945
-0.509456
-0.509474
-0.541017
-0.541005
-0.541002
-0.541009
-0.541022
-0.541042
-0.541065
-0.541091
-0.541118
-0.541143
-0.541166
-0.541184
-0.541198
-0.541206
-0.541207
-0.541201
-0.541189
-0.54117
-0.541146
-0.541117
-0.541085
-0.541051
-0.541017
-0.540985
-0.540956
-0.540934
-0.540918
-0.540912
-0.540916
-0.54093
-0.572896
-0.572887
-0.572886
-0.572894
-0.572909
-0.572932
-0.572959
-0.572988
-0.573019
-0.573048
-0.573074
-0.573096
-0.573111
-0.57312
-0.573122
-0.573116
-0.573102
-0.573082
-0.573055
-0.573022
-0.572986
-0.572948
-0.57291
-0.572873
-0.572841
-0.572815
-0.572797
-0.572789
-0.572792
-0.572804
-0.605186
-0.605176
-0.605175
-0.605183
-0.605201
-0.605227
-0.605258
-0.605293
-0.605328
-0.605362
-0.605393
-0.605418
-0.605436
-0.605447
-0.605449
-0.605443
-0.605428
-0.605405
-0.605374
-0.605338
-0.605297
-0.605253
-0.605209
-0.605167
-0.605131
-0.605101
-0.605082
-0.605073
-0.605076
-0.605088
)
;

boundaryField
{
    floor
    {
        type            calculated;
        value           nonuniform List<scalar> 
30
(
0.000456094
0.000441628
0.000439177
0.000451561
0.000478542
0.000517897
0.000566376
0.000620357
0.000676157
0.000730219
0.000779274
0.000820463
0.00085143
0.000870378
0.000876142
0.000868189
0.00084663
0.000812247
0.000766471
0.000711355
0.00064952
0.000584078
0.000518542
0.000456672
0.000402335
0.000359254
0.000330633
0.000318359
0.000322068
0.000337107
)
;
    }
    ceiling
    {
        type            calculated;
        value           nonuniform List<scalar> 
30
(
-0.621446
-0.621437
-0.621436
-0.621444
-0.621462
-0.621488
-0.62152
-0.621555
-0.621591
-0.621625
-0.621655
-0.621681
-0.621699
-0.62171
-0.621712
-0.621706
-0.621691
-0.621668
-0.621637
-0.6216
-0.621559
-0.621515
-0.621471
-0.621429
-0.621392
-0.621362
-0.621342
-0.621333
-0.621336
-0.621347
)
;
    }
    fixedWalls
    {
        type            calculated;
        value           nonuniform List<scalar> 
60
(
0
-0.00181064
-0.00544486
-0.0108907
-0.0181233
-0.0271084
-0.0378028
-0.0501562
-0.0641116
-0.0796068
-0.0965747
-0.114945
-0.134643
-0.155595
-0.177725
-0.200955
-0.22521
-0.250418
-0.276505
-0.303403
-0.331049
-0.35938
-0.388341
-0.417881
-0.447955
-0.478523
-0.509552
-0.541017
-0.572896
-0.605186
-0.000118494
-0.00192182
-0.00554779
-0.0109846
-0.0182081
-0.0271842
-0.0378698
-0.0502146
-0.0641617
-0.0796487
-0.0966085
-0.114971
-0.134662
-0.155606
-0.177728
-0.200951
-0.2252
-0.2504
-0.276481
-0.303373
-0.331011
-0.359336
-0.38829
-0.417824
-0.447891
-0.478452
-0.509474
-0.54093
-0.572804
-0.605088
)
;
    }
    frontAndBack
    {
        type            empty;
    }
}


// ************************************************************************* //
