/*--------------------------------*- C++ -*----------------------------------*\
| =========                 |                                                 |
| \\      /  F ield         | OpenFOAM: The Open Source CFD Toolbox           |
|  \\    /   O peration     | Version:  2412                                  |
|   \\  /    A nd           | Website:  www.openfoam.com                      |
|    \\/     M anipulation  |                                                 |
\*---------------------------------------------------------------------------*/
FoamFile
{
    version     2.0;
    format      ascii;
    arch        "LSB;label=32;scalar=64";
    class       volScalarField;
    location    "400";
    object      p_rgh;
}
// * * * * * * * * * * * * * * * * * * * * * * * * * * * * * * * * * * * * * //

dimensions      [0 2 -2 0 0 0 0];

internalField   nonuniform List<scalar> 
900
(
0.000456094
0.000441628
0.000439177
0.000451561
0.000478542
0.000517897
0.000566376
0.000620357
0.000676157
0.000730219
0.000779274
0.000820463
0.00085143
0.000870378
0.000876142
0.000868189
0.00084663
0.000812247
0.000766471
0.000711355
0.00064952
0.000584078
0.000518542
0.000456672
0.000402335
0.000359254
0.000330633
0.000318359
0.000322068
0.000337107
0.00228601
0.00227654
0.00227882
0.00229448
0.00232228
0.00236032
0.00240588
0.00245591
0.00250726
0.00255681
0.00260163
0.00263916
0.00266725
0.00268427
0.00268916
0.00268144
0.00266121
0.00262921
0.00258674
0.00253569
0.00247845
0.00241783
0.00235696
0.00229911
0.00224758
0.00220549
0.00217555
0.00215944
0.00215819
0.00217011
0.00589727
0.00589371
0.00590246
0.00592416
0.0059565
0.00599764
0.00604507
0.00609603
0.00614766
0.00619709
0.00624158
0.00627867
0.00630635
0.00632303
0.00632773
0.00631999
0.0062999
0.00626816
0.00622605
0.00617536
0.00611837
0.00605775
0.00599646
0.00593746
0.00588375
0.00583817
0.00580326
0.00578081
0.00577318
0.00578046
0.0112319
0.0112383
0.0112566
0.0112876
0.0113283
0.0113768
0.0114306
0.011487
0.0115433
0.0115967
0.0116444
0.011684
0.0117135
0.0117313
0.0117364
0.0117284
0.0117073
0.011674
0.0116295
0.0115758
0.011515
0.01145
0.0113835
0.0113186
0.0112579
0.0112045
0.0111607
0.0111287
0.0111115
0.0111098
0.018212
0.0182332
0.0182649
0.0183087
0.0183614
0.0184209
0.0184849
0.0185505
0.018615
0.0186756
0.0187293
0.0187738
0.0188069
0.018827
0.0188331
0.0188246
0.0188017
0.0187651
0.0187161
0.0186565
0.0185888
0.0185157
0.0184402
0.0183652
0.0182936
0.0182284
0.018172
0.0181266
0.0180956
0.0180796
0.0267386
0.0267791
0.026828
0.0268878
0.0269556
0.0270295
0.0271068
0.0271848
0.0272605
0.027331
0.0273933
0.0274446
0.0274828
0.0275062
0.0275135
0.0275044
0.0274789
0.0274377
0.0273823
0.0273147
0.0272373
0.027153
0.0270651
0.0269767
0.0268906
0.02681
0.0267376
0.0266753
0.0266264
0.0265912
0.0366941
0.0367576
0.0368267
0.0369053
0.036991
0.0370818
0.037175
0.0372678
0.0373571
0.0374396
0.0375121
0.0375717
0.0376161
0.0376434
0.0376523
0.0376424
0.0376137
0.037567
0.0375039
0.0374264
0.0373372
0.0372395
0.0371367
0.037032
0.0369287
0.0368299
0.0367384
0.0366561
0.0365858
0.0365272
0.0479444
0.0480335
0.0481251
0.0482247
0.0483301
0.0484397
0.0485507
0.04866
0.0487643
0.0488601
0.048944
0.0490129
0.0490642
0.0490958
0.0491066
0.0490958
0.0490635
0.0490107
0.0489388
0.0488503
0.048748
0.0486353
0.0485158
0.048393
0.0482704
0.0481513
0.0480385
0.0479339
0.0478395
0.0477543
0.0603413
0.0604579
0.0605736
0.0606953
0.0608218
0.0609513
0.0610809
0.0612076
0.0613277
0.0614375
0.0615333
0.0616118
0.0616703
0.0617065
0.0617191
0.0617073
0.0616714
0.0616121
0.0615312
0.0614312
0.0613151
0.0611865
0.0610494
0.0609074
0.0607644
0.0606238
0.0604883
0.0603596
0.0602392
0.0601255
0.0737267
0.0738716
0.0740119
0.0741564
0.0743043
0.0744539
0.0746025
0.0747466
0.0748825
0.0750062
0.0751138
0.0752018
0.0752674
0.0753081
0.0753225
0.0753098
0.0752701
0.0752045
0.0751146
0.0750032
0.0748734
0.074729
0.0745741
0.0744128
0.0742491
0.0740864
0.0739276
0.0737742
0.073627
0.0734835
0.0879354
0.0881085
0.0882734
0.0884404
0.0886093
0.0887786
0.0889454
0.0891063
0.0892572
0.0893941
0.0895129
0.0896099
0.0896821
0.089727
0.089743
0.0897295
0.0896864
0.0896147
0.0895164
0.0893942
0.0892514
0.0890919
0.0889201
0.0887401
0.0885561
0.0883718
0.08819
0.0880119
0.0878377
0.0876643
0.102799
0.103
0.103188
0.103377
0.103566
0.103753
0.103937
0.104113
0.104278
0.104427
0.104556
0.104661
0.104739
0.104787
0.104805
0.10479
0.104744
0.104667
0.104561
0.10443
0.104275
0.104102
0.103914
0.103717
0.103514
0.10331
0.103106
0.102904
0.102704
0.102501
0.118151
0.118377
0.118587
0.118796
0.119003
0.119207
0.119406
0.119596
0.119772
0.119931
0.120068
0.12018
0.120263
0.120314
0.120333
0.120318
0.120269
0.120188
0.120076
0.119936
0.119772
0.119587
0.119386
0.119173
0.118954
0.11873
0.118506
0.118282
0.118057
0.117827
0.133827
0.134076
0.134306
0.134532
0.134755
0.134974
0.135185
0.135386
0.135572
0.135738
0.135882
0.135999
0.136085
0.136139
0.136159
0.136144
0.136093
0.136008
0.135892
0.135746
0.135573
0.135379
0.135167
0.134942
0.134708
0.134469
0.134227
0.133983
0.133736
0.13348
0.149672
0.149941
0.150188
0.150429
0.150665
0.150895
0.151116
0.151325
0.151518
0.15169
0.151838
0.151958
0.152047
0.152103
0.152123
0.152107
0.152055
0.151969
0.151849
0.151699
0.151521
0.15132
0.1511
0.150866
0.15062
0.150368
0.150111
0.14985
0.149583
0.149306
0.165541
0.165826
0.166087
0.16634
0.166586
0.166823
0.167051
0.167265
0.167462
0.167638
0.167788
0.167909
0.167999
0.168056
0.168076
0.16806
0.168008
0.167921
0.1678
0.167648
0.167467
0.167263
0.167038
0.166797
0.166544
0.166282
0.166014
0.165739
0.165456
0.16516
0.181303
0.181601
0.181872
0.182133
0.182385
0.182627
0.182858
0.183075
0.183272
0.183448
0.183598
0.18372
0.183809
0.183865
0.183886
0.18387
0.183819
0.183732
0.183611
0.183459
0.183279
0.183074
0.182848
0.182604
0.182347
0.182079
0.181803
0.181518
0.181223
0.180912
0.196844
0.19715
0.197427
0.197692
0.197947
0.19819
0.198421
0.198637
0.198833
0.199006
0.199154
0.199273
0.199361
0.199416
0.199436
0.199421
0.199371
0.199286
0.199168
0.199018
0.198841
0.198638
0.198414
0.198171
0.197913
0.197643
0.197363
0.197073
0.19677
0.196449
0.212068
0.212377
0.212656
0.212922
0.213175
0.213416
0.213644
0.213855
0.214046
0.214215
0.214358
0.214474
0.214559
0.214612
0.214631
0.214617
0.214568
0.214486
0.214372
0.214228
0.214056
0.213859
0.213639
0.2134
0.213146
0.212879
0.212599
0.212307
0.212001
0.211674
0.226899
0.227207
0.227484
0.227746
0.227994
0.228229
0.228449
0.228653
0.228837
0.228998
0.229135
0.229245
0.229326
0.229376
0.229395
0.229381
0.229336
0.229258
0.22915
0.229012
0.228848
0.228659
0.228448
0.228218
0.227971
0.227709
0.227434
0.227145
0.22684
0.226513
0.241284
0.241586
0.241856
0.24211
0.242349
0.242575
0.242785
0.242978
0.243151
0.243303
0.243432
0.243535
0.24361
0.243658
0.243675
0.243663
0.24362
0.243548
0.243447
0.243319
0.243165
0.242987
0.242787
0.242568
0.242332
0.242081
0.241814
0.241533
0.241234
0.240913
0.255192
0.255482
0.255742
0.255983
0.25621
0.256422
0.256619
0.256799
0.25696
0.2571
0.257218
0.257313
0.257382
0.257425
0.257442
0.25743
0.257392
0.257326
0.257234
0.257116
0.256975
0.25681
0.256625
0.256421
0.2562
0.255962
0.255709
0.25544
0.255152
0.254841
0.268616
0.26889
0.269134
0.269359
0.26957
0.269765
0.269945
0.270109
0.270255
0.270382
0.270488
0.270573
0.270635
0.270674
0.270688
0.270679
0.270645
0.270586
0.270504
0.270399
0.270272
0.270124
0.269956
0.26977
0.269567
0.269347
0.269112
0.26886
0.268588
0.268292
0.281574
0.281826
0.28205
0.282255
0.282446
0.282621
0.282782
0.282927
0.283055
0.283167
0.283259
0.283333
0.283387
0.283421
0.283434
0.283426
0.283397
0.283347
0.283276
0.283185
0.283074
0.282945
0.282797
0.282632
0.282451
0.282253
0.28204
0.281809
0.281558
0.281283
0.294106
0.294332
0.294531
0.294713
0.29488
0.295032
0.29517
0.295294
0.295403
0.295497
0.295575
0.295636
0.295682
0.29571
0.295721
0.295715
0.295691
0.29565
0.295592
0.295517
0.295424
0.295316
0.29519
0.29505
0.294893
0.294721
0.294533
0.294329
0.294103
0.293855
0.306278
0.306473
0.306644
0.306798
0.306938
0.307064
0.307177
0.307277
0.307365
0.307439
0.3075
0.307549
0.307584
0.307607
0.307616
0.307612
0.307594
0.307563
0.307518
0.30746
0.307388
0.307302
0.307202
0.307089
0.30696
0.306818
0.30666
0.306485
0.306291
0.306075
0.318181
0.31834
0.318478
0.318601
0.31871
0.318807
0.318893
0.318967
0.319031
0.319084
0.319127
0.319161
0.319186
0.319202
0.319209
0.319207
0.319196
0.319175
0.319146
0.319106
0.319056
0.318995
0.318923
0.318839
0.318743
0.318633
0.318509
0.318368
0.31821
0.318032
0.329927
0.330045
0.330147
0.330235
0.330311
0.330376
0.330431
0.330477
0.330515
0.330545
0.330569
0.330588
0.330601
0.33061
0.330614
0.330614
0.33061
0.330602
0.330588
0.330568
0.330542
0.330509
0.330467
0.330416
0.330354
0.33028
0.330193
0.330092
0.329974
0.329838
0.34165
0.341725
0.341788
0.341839
0.341879
0.341909
0.341931
0.341945
0.341955
0.34196
0.341963
0.341964
0.341965
0.341966
0.341968
0.341971
0.341974
0.341978
0.341981
0.341984
0.341984
0.341981
0.341972
0.341957
0.341933
0.341899
0.341852
0.341793
0.341719
0.34163
0.353503
0.353534
0.353556
0.353568
0.35357
0.353562
0.353547
0.353528
0.353506
0.353484
0.353464
0.353447
0.353434
0.353427
0.353426
0.353431
0.353442
0.35346
0.353482
0.353508
0.353537
0.353566
0.353594
0.353618
0.353635
0.353644
0.353641
0.353626
0.353598
0.353559
)
;

boundaryField
{
    floor
    {
        type            fixedFluxPressure;
        gradient        uniform 0;
        value           nonuniform List<scalar> 
30
(
0.000456094
0.000441628
0.000439177
0.000451561
0.000478542
0.000517897
0.000566376
0.000620357
0.000676157
0.000730219
0.000779274
0.000820463
0.00085143
0.000870378
0.000876142
0.000868189
0.00084663
0.000812247
0.000766471
0.000711355
0.00064952
0.000584078
0.000518542
0.000456672
0.000402335
0.000359254
0.000330633
0.000318359
0.000322068
0.000337107
)
;
    }
    ceiling
    {
        type            fixedFluxPressure;
        gradient        nonuniform List<scalar> 
30
(
3.63767
3.62432
3.61141
3.59904
3.5873
3.57627
3.56602
3.55667
3.54833
3.5411
3.53504
3.53024
3.52675
3.52463
3.52392
3.52463
3.52676
3.53031
3.53524
3.5415
3.54903
3.55777
3.56764
3.57854
3.59037
3.60304
3.61651
3.63081
3.64608
3.66281
)
;
        value           nonuniform List<scalar> 
30
(
0.359554
0.359563
0.359564
0.359556
0.359538
0.359512
0.35948
0.359445
0.359409
0.359375
0.359345
0.359319
0.359301
0.35929
0.359288
0.359294
0.359309
0.359332
0.359363
0.3594
0.359441
0.359485
0.359529
0.359571
0.359608
0.359638
0.359658
0.359667
0.359664
0.359653
)
;
    }
    fixedWalls
    {
        type            fixedFluxPressure;
        gradient        uniform 0;
        value           nonuniform List<scalar> 
60
(
0.000456094
0.00228601
0.00589727
0.0112319
0.018212
0.0267386
0.0366941
0.0479444
0.0603413
0.0737267
0.0879354
0.102799
0.118151
0.133827
0.149672
0.165541
0.181303
0.196844
0.212068
0.226899
0.241284
0.255192
0.268616
0.281574
0.294106
0.306278
0.318181
0.329927
0.34165
0.353503
0.000337107
0.00217011
0.00578046
0.0111098
0.0180796
0.0265912
0.0365272
0.0477543
0.0601255
0.0734835
0.0876643
0.102501
0.117827
0.13348
0.149306
0.16516
0.180912
0.196449
0.211674
0.226513
0.240913
0.254841
0.268292
0.281283
0.293855
0.306075
0.318032
0.329838
0.34163
0.353559
)
;
    }
    frontAndBack
    {
        type            empty;
    }
}


// ************************************************************************* //
