/*--------------------------------*- C++ -*----------------------------------*\
| =========                 |                                                 |
| \\      /  F ield         | OpenFOAM: The Open Source CFD Toolbox           |
|  \\    /   O peration     | Version:  2412                                  |
|   \\  /    A nd           | Website:  www.openfoam.com                      |
|    \\/     M anipulation  |                                                 |
\*---------------------------------------------------------------------------*/
FoamFile
{
    version     2.0;
    format      ascii;
    arch        "LSB;label=32;scalar=64";
    class       surfaceScalarField;
    location    "400";
    object      phi;
}
// * * * * * * * * * * * * * * * * * * * * * * * * * * * * * * * * * * * * * //

dimensions      [0 3 -1 0 0 0 0];

oriented        oriented;

internalField   nonuniform List<scalar> 
1740
(
-3.50441e-09
4.01051e-09
-1.52644e-08
1.17597e-08
-3.15314e-08
1.62641e-08
-4.87969e-08
1.72642e-08
-6.44076e-08
1.56098e-08
-7.65416e-08
1.21341e-08
-8.40794e-08
7.5389e-09
-8.64542e-08
2.37651e-09
-8.35322e-08
-2.92e-09
-7.55265e-08
-8.00399e-09
-6.29305e-08
-1.25947e-08
-4.64604e-08
-1.64691e-08
-2.70044e-08
-1.94557e-08
-5.57589e-09
-2.14287e-08
1.67324e-08
-2.23088e-08
3.87876e-08
-2.20556e-08
5.94553e-08
-2.0668e-08
7.76443e-08
-1.8189e-08
9.23504e-08
-1.47056e-08
1.02703e-07
-1.03517e-08
1.08017e-07
-5.31226e-09
1.07849e-07
1.71199e-10
1.02057e-07
5.79433e-09
9.0879e-08
1.11808e-08
7.50305e-08
1.58505e-08
5.5842e-08
1.9189e-08
3.54212e-08
2.04195e-08
1.67826e-08
1.86355e-08
3.82227e-09
1.29559e-08
3.81716e-09
-1.22993e-08
1.63095e-08
-4.09613e-08
4.04207e-08
-7.82294e-08
5.35319e-08
-1.17208e-07
5.62438e-08
-1.52414e-07
5.08177e-08
-1.7985e-07
3.95739e-08
-1.96891e-07
2.45841e-08
-2.02096e-07
7.58608e-09
-1.95023e-07
-9.98836e-09
-1.76066e-07
-2.69574e-08
-1.46309e-07
-4.23487e-08
-1.07395e-07
-5.53803e-08
-6.14041e-08
-6.54455e-08
-1.07326e-08
-7.20994e-08
4.20141e-08
-7.50547e-08
9.41272e-08
-7.41677e-08
1.42901e-07
-6.94407e-08
1.85744e-07
-6.10297e-08
2.20288e-07
-4.92462e-08
2.44508e-07
-3.45665e-08
2.56844e-07
-1.76438e-08
2.56344e-07
6.76454e-10
2.42801e-07
1.93417e-08
2.16915e-07
3.70702e-08
1.80481e-07
5.22872e-08
1.3659e-07
6.30798e-08
8.98223e-08
6.71827e-08
4.63374e-08
6.21123e-08
1.36926e-08
4.559e-08
1.75048e-08
-1.82581e-08
3.45648e-08
-5.81274e-08
8.02851e-08
-1.08529e-07
1.0393e-07
-1.60672e-07
1.08383e-07
-2.07597e-07
9.77418e-08
-2.44129e-07
7.61066e-08
-2.66761e-07
4.72176e-08
-2.73494e-07
1.432e-08
-2.63649e-07
-1.98315e-08
-2.37689e-07
-5.29167e-08
-1.97032e-07
-8.30045e-08
-1.43885e-07
-1.08529e-07
-8.10653e-08
-1.28266e-07
-1.18497e-08
-1.41317e-07
6.01873e-08
-1.47094e-07
1.31322e-07
-1.45305e-07
1.97842e-07
-1.35962e-07
2.56197e-07
-1.19386e-07
3.03158e-07
-9.62084e-08
3.35985e-07
-6.7395e-08
3.52602e-07
-3.42614e-08
3.51776e-07
1.50092e-09
3.33312e-07
3.78035e-08
2.98246e-07
7.21324e-08
2.49054e-07
1.01474e-07
1.89852e-07
1.22276e-07
1.26552e-07
1.30476e-07
6.69573e-08
1.21699e-07
2.07662e-08
9.17729e-08
3.82687e-08
-2.12386e-08
5.5802e-08
-6.71038e-08
1.26145e-07
-1.2457e-07
1.61391e-07
-1.83691e-07
1.67501e-07
-2.36739e-07
1.50789e-07
-2.77961e-07
1.17328e-07
-3.03413e-07
7.26705e-08
-3.10805e-07
2.17133e-08
-2.99325e-07
-3.13096e-08
-2.69456e-07
-8.2784e-08
-2.22786e-07
-1.29674e-07
-1.61812e-07
-1.69503e-07
-8.97548e-08
-2.00324e-07
-1.03711e-08
-2.20702e-07
7.22265e-08
-2.29693e-07
1.53751e-07
-2.26832e-07
2.29929e-07
-2.12143e-07
2.96681e-07
-1.86141e-07
3.5031e-07
-1.49841e-07
3.87694e-07
-1.04783e-07
4.06486e-07
-5.30571e-08
4.05321e-07
2.66205e-09
3.84026e-07
5.90945e-08
3.43828e-07
1.12326e-07
2.87555e-07
1.57741e-07
2.19829e-07
1.89996e-07
1.47226e-07
2.03074e-07
7.84419e-08
1.90479e-07
2.45558e-08
1.45656e-07
6.28271e-08
-2.19863e-08
7.77846e-08
-6.96426e-08
1.73795e-07
-1.29325e-07
2.21068e-07
-1.90634e-07
2.28807e-07
-2.45568e-07
2.05721e-07
-2.88194e-07
1.59953e-07
-3.14431e-07
9.89085e-08
-3.21894e-07
2.91766e-08
-3.09716e-07
-4.34861e-08
-2.78378e-07
-1.14121e-07
-2.29514e-07
-1.78538e-07
-1.6572e-07
-2.33298e-07
-9.03535e-08
-2.75691e-07
-7.34527e-09
-3.03712e-07
7.89952e-08
-3.16036e-07
1.64172e-07
-3.12012e-07
2.43706e-07
-2.9168e-07
3.13325e-07
-2.55764e-07
3.69165e-07
-2.05686e-07
4.07973e-07
-1.43595e-07
4.27316e-07
-7.24052e-08
4.25795e-07
4.17819e-09
4.03257e-07
8.16282e-08
3.61002e-07
1.54577e-07
3.01982e-07
2.16759e-07
2.30982e-07
2.60995e-07
1.54804e-07
2.79252e-07
8.25033e-08
2.62782e-07
2.57845e-08
2.02381e-07
8.86196e-08
-2.11817e-08
9.89624e-08
-6.74724e-08
2.2008e-07
-1.25625e-07
2.79217e-07
-1.85417e-07
2.88596e-07
-2.38988e-07
2.59292e-07
-2.8052e-07
2.01486e-07
-3.06017e-07
1.24407e-07
-3.1313e-07
3.62919e-08
-3.01001e-07
-5.5613e-08
-2.70088e-07
-1.45032e-07
-2.21986e-07
-2.26639e-07
-1.59236e-07
-2.96048e-07
-8.51359e-08
-3.49792e-07
-3.55187e-09
-3.85297e-07
8.12734e-08
-4.00863e-07
1.64913e-07
-3.95654e-07
2.42955e-07
-3.69725e-07
3.11194e-07
-3.24007e-07
3.65833e-07
-2.60327e-07
4.03677e-07
-1.81443e-07
4.22347e-07
-9.10776e-08
4.20482e-07
6.04171e-09
3.97946e-07
1.04163e-07
3.56032e-07
1.96491e-07
2.97648e-07
2.75145e-07
2.275e-07
3.31148e-07
1.52289e-07
3.54472e-07
8.09733e-08
3.34109e-07
2.51773e-08
2.58192e-07
1.13807e-07
-1.93537e-08
1.18313e-07
-6.20286e-08
2.62752e-07
-1.15873e-07
3.33061e-07
-1.71349e-07
3.44071e-07
-2.21089e-07
3.09033e-07
-2.59635e-07
2.40036e-07
-2.83237e-07
1.48011e-07
-2.89689e-07
4.27474e-08
-2.78181e-07
-6.71185e-08
-2.49135e-07
-1.74076e-07
-2.04037e-07
-2.71736e-07
-1.45262e-07
-3.54823e-07
-7.58962e-08
-4.19158e-07
4.39302e-10
-4.61635e-07
7.97695e-08
-4.80197e-07
1.57947e-07
-4.73835e-07
2.30836e-07
-4.42619e-07
2.94499e-07
-3.87674e-07
3.45376e-07
-3.11208e-07
3.8048e-07
-2.1655e-07
3.97588e-07
-1.08186e-07
3.95433e-07
8.1978e-09
3.73899e-07
1.25699e-07
3.34211e-07
2.36184e-07
2.79113e-07
3.30251e-07
2.13042e-07
3.97229e-07
1.42327e-07
4.25201e-07
7.54333e-08
4.01019e-07
2.33184e-08
3.10324e-07
1.37133e-07
-1.6881e-08
1.35192e-07
-5.44188e-08
3.00291e-07
-1.01996e-07
3.8064e-07
-1.51134e-07
3.93211e-07
-1.95237e-07
3.5314e-07
-2.29403e-07
2.74205e-07
-2.50258e-07
1.6887e-07
-2.55818e-07
4.83103e-08
-2.45351e-07
-7.75836e-08
-2.19232e-07
-2.00195e-07
-1.78787e-07
-3.12181e-07
-1.26143e-07
-4.07469e-07
-6.40613e-08
-4.81243e-07
4.2162e-09
-5.29918e-07
7.51305e-08
-5.51117e-07
1.4497e-07
-5.43681e-07
2.10031e-07
-5.07687e-07
2.66785e-07
-4.44436e-07
3.12047e-07
-3.56476e-07
3.43141e-07
-2.47649e-07
3.58078e-07
-1.23126e-07
3.55729e-07
1.05472e-08
3.35999e-07
1.45433e-07
3.00001e-07
2.72187e-07
2.5022e-07
3.8004e-07
1.90675e-07
4.56784e-07
1.27096e-07
4.88793e-07
6.7135e-08
4.60994e-07
2.06363e-08
3.56834e-07
1.5777e-07
-1.40325e-08
1.49225e-07
-4.54788e-08
3.31739e-07
-8.55044e-08
4.20669e-07
-1.26942e-07
4.34651e-07
-1.64168e-07
3.90369e-07
-1.92984e-07
3.03024e-07
-2.10497e-07
1.86384e-07
-2.15002e-07
5.28164e-08
-2.05871e-07
-8.67159e-08
-1.83421e-07
-2.22647e-07
-1.48786e-07
-3.46819e-07
-1.03782e-07
-4.52479e-07
-5.07675e-08
-5.34264e-07
7.48901e-09
-5.88183e-07
6.795e-08
-6.11588e-07
1.27449e-07
-6.0319e-07
1.82824e-07
-5.63073e-07
2.31061e-07
-4.92684e-07
2.69439e-07
-3.94864e-07
2.95671e-07
-2.73889e-07
3.08059e-07
-1.3552e-07
3.05641e-07
1.29631e-08
2.88342e-07
1.62732e-07
2.57132e-07
3.03401e-07
2.14163e-07
4.23014e-07
1.62914e-07
5.08038e-07
1.08342e-07
5.4337e-07
5.70428e-08
5.12298e-07
1.74412e-08
3.96437e-07
1.75206e-07
-1.10007e-08
1.60228e-07
-3.58358e-08
3.56577e-07
-6.75694e-08
4.52406e-07
-1.0049e-07
4.67575e-07
-1.30079e-07
4.1996e-07
-1.52945e-07
3.2589e-07
-1.66743e-07
2.00183e-07
-1.70095e-07
5.61672e-08
-1.62491e-07
-9.43218e-08
-1.44191e-07
-2.40952e-07
-1.16112e-07
-3.74905e-07
-7.97182e-08
-4.88879e-07
-3.6915e-08
-5.77076e-07
1.00647e-08
-6.35172e-07
5.87725e-08
-6.60307e-07
1.06658e-07
-6.51085e-07
1.51171e-07
-6.07597e-07
1.89883e-07
-5.31405e-07
2.20593e-07
-4.25583e-07
2.41456e-07
-2.94762e-07
2.51101e-07
-1.45171e-07
2.48751e-07
1.53094e-08
2.34352e-07
1.77129e-07
2.08701e-07
3.29052e-07
1.73565e-07
4.58151e-07
1.31795e-07
5.49808e-07
8.74463e-08
5.87717e-07
4.58956e-08
5.53844e-07
1.39604e-08
4.28365e-07
1.89162e-07
-7.92554e-09
1.68155e-07
-2.59608e-08
3.74614e-07
-4.90928e-08
4.7554e-07
-7.31287e-08
4.91611e-07
-9.47203e-08
4.41552e-07
-1.11343e-07
3.42512e-07
-1.21248e-07
2.10087e-07
-1.23408e-07
5.8325e-08
-1.17446e-07
-1.00286e-07
-1.03562e-07
-2.54841e-07
-8.2442e-08
-3.9603e-07
-5.51832e-08
-5.16145e-07
-2.32048e-08
-6.0906e-07
1.18289e-08
-6.70213e-07
4.80956e-08
-6.96581e-07
8.36984e-08
-6.86695e-07
1.16741e-07
-6.40644e-07
1.45411e-07
-5.60078e-07
1.6807e-07
-4.48244e-07
1.83337e-07
-3.10031e-07
1.90188e-07
-1.52024e-07
1.88041e-07
1.74555e-08
1.76861e-07
1.8831e-07
1.57253e-07
3.4866e-07
1.3056e-07
4.84844e-07
9.89493e-08
5.81418e-07
6.54955e-08
6.21167e-07
3.42616e-08
5.85073e-07
1.03647e-08
4.52257e-07
1.9953e-07
-4.90846e-09
1.73065e-07
-1.62059e-08
3.85913e-07
-3.07609e-08
4.90096e-07
-4.58979e-08
5.06748e-07
-5.94573e-08
4.55112e-07
-6.98019e-08
3.52857e-07
-7.57974e-08
2.16081e-07
-7.67805e-08
5.93067e-08
-7.25148e-08
-1.04554e-07
-6.31378e-08
-2.6422e-07
-4.91066e-08
-4.10065e-07
-3.11407e-08
-5.34115e-07
-1.01662e-08
-6.30037e-07
1.27332e-08
-6.93114e-07
3.63725e-08
-7.20223e-07
5.95196e-08
-7.09844e-07
8.09419e-08
-6.62066e-07
9.94601e-08
-5.78593e-07
1.14003e-07
-4.62782e-07
1.23669e-07
-3.19691e-07
1.27783e-07
-1.56132e-07
1.25962e-07
1.92816e-08
1.18183e-07
1.96093e-07
1.0485e-07
3.61997e-07
8.68627e-08
5.02834e-07
6.56723e-08
6.02609e-07
4.33398e-08
6.435e-07
2.25783e-08
6.05836e-07
6.78342e-09
4.68058e-07
2.06323e-07
-2.02244e-09
1.75088e-07
-6.82979e-09
3.9072e-07
-1.30852e-08
4.96353e-07
-1.95842e-08
5.13248e-07
-2.53322e-08
4.60861e-07
-2.95694e-08
3.57095e-07
-3.17712e-08
2.18284e-07
-3.16383e-08
5.91735e-08
-2.90753e-08
-1.07118e-07
-2.41616e-08
-2.69134e-07
-1.71259e-08
-4.17101e-07
-8.31813e-09
-5.42926e-07
1.82203e-09
-6.40179e-07
1.27842e-08
-7.04075e-07
2.40117e-08
-7.31449e-07
3.49259e-08
-7.20758e-07
4.49479e-08
-6.72086e-07
5.35221e-08
-5.87162e-07
6.01402e-08
-4.69392e-07
6.4369e-08
-3.23911e-07
6.58809e-08
-1.57636e-07
6.44864e-08
2.06825e-08
6.01702e-08
2.00414e-07
5.31315e-08
3.69039e-07
4.38206e-08
5.12147e-07
3.29724e-08
6.13459e-07
2.1633e-08
6.54843e-07
1.11775e-08
6.16299e-07
3.31082e-09
4.75938e-07
2.09639e-07
6.81845e-10
1.74407e-07
1.98498e-09
3.89418e-07
3.56738e-09
4.94773e-07
5.24185e-09
5.11575e-07
6.89145e-09
4.59213e-07
8.43431e-09
3.55553e-07
9.80804e-09
2.16911e-07
1.09603e-08
5.80204e-08
1.18489e-08
-1.08009e-07
1.24496e-08
-2.69736e-07
1.27539e-08
-4.17407e-07
1.27665e-08
-5.42943e-07
1.25136e-08
-6.39932e-07
1.20353e-08
-7.03599e-07
1.13778e-08
-7.30792e-07
1.05882e-08
-7.1997e-07
9.71433e-09
-6.71214e-07
8.79873e-09
-5.86247e-07
7.87342e-09
-4.68466e-07
6.95682e-09
-3.22994e-07
6.05392e-09
-1.56732e-07
5.15908e-09
2.15765e-08
4.26259e-09
2.01309e-07
3.36079e-09
3.69938e-07
2.46564e-09
5.13039e-07
1.61247e-09
6.14312e-07
8.6265e-10
6.55595e-07
3.00077e-10
6.16867e-07
9.94282e-12
4.76233e-07
2.0964e-07
3.17244e-09
1.71236e-07
1.01193e-08
3.82472e-07
1.89519e-08
4.85942e-07
2.81928e-08
5.02335e-07
3.66892e-08
4.50716e-07
4.35717e-08
3.48669e-07
4.82282e-08
2.12253e-07
5.02777e-08
5.59686e-08
4.95482e-08
-1.07286e-07
4.60662e-08
-2.66261e-07
4.00313e-08
-4.11374e-07
3.1782e-08
-5.34699e-07
2.17795e-08
-6.29937e-07
1.0579e-08
-6.92404e-07
-1.20872e-09
-7.19007e-07
-1.29482e-08
-7.08232e-07
-2.40047e-08
-6.60161e-07
-3.37753e-08
-5.76481e-07
-4.17223e-08
-4.60525e-07
-4.74037e-08
-3.17318e-07
-5.05026e-08
-1.5364e-07
-5.08528e-08
2.1919e-08
-4.84608e-08
1.98909e-07
-4.35239e-08
3.64993e-07
-3.64469e-08
5.05957e-07
-2.78582e-08
6.0572e-07
-1.86278e-08
6.46363e-07
-9.89089e-09
6.08128e-07
-3.07951e-09
4.69412e-07
2.06549e-07
5.43176e-09
1.65806e-07
1.75045e-08
3.70399e-07
3.29235e-08
4.70523e-07
4.90349e-08
4.86223e-07
6.37403e-08
4.36009e-07
7.54499e-08
3.36955e-07
8.30489e-08
2.0465e-07
8.58584e-08
5.31568e-08
8.35886e-08
-1.05022e-07
7.63121e-08
-2.58993e-07
6.442e-08
-3.99485e-07
4.85595e-08
-5.18839e-07
2.95913e-08
-6.10971e-07
8.53998e-09
-6.71356e-07
-1.34651e-08
-6.97002e-07
-3.52468e-08
-6.86447e-07
-5.56307e-08
-6.39774e-07
-7.35006e-08
-5.58609e-07
-8.78553e-08
-4.4617e-07
-9.78651e-08
-3.0731e-07
-1.02927e-07
-1.48581e-07
-1.02717e-07
2.17051e-08
-9.72384e-08
1.93428e-07
-8.6869e-08
3.54623e-07
-7.23986e-08
4.91487e-07
-5.50694e-08
5.88393e-07
-3.6613e-08
6.27909e-07
-1.92901e-08
5.90802e-07
-5.92819e-09
4.56038e-07
2.00623e-07
7.45362e-09
1.58353e-07
2.41129e-08
3.53737e-07
4.54192e-08
4.49214e-07
6.76614e-08
4.63977e-07
8.78938e-08
4.15774e-07
1.03882e-07
3.20962e-07
1.14059e-07
1.94465e-07
1.17485e-07
4.97305e-08
1.13769e-07
-1.01307e-07
1.03025e-07
-2.48254e-07
8.5815e-08
-3.82278e-07
6.30674e-08
-4.96088e-07
3.60038e-08
-5.83903e-07
6.07023e-09
-6.41419e-07
-2.51394e-08
-6.65789e-07
-5.59607e-08
-6.55621e-07
-8.47326e-08
-6.10994e-07
-1.09877e-07
-5.33457e-07
-1.29977e-07
-4.26063e-07
-1.43853e-07
-2.93428e-07
-1.50645e-07
-1.41784e-07
-1.49887e-07
2.09523e-08
-1.4158e-07
1.85128e-07
-1.26261e-07
3.39313e-07
-1.05068e-07
4.70304e-07
-7.97967e-08
5.63131e-07
-5.29592e-08
6.01076e-07
-2.78337e-08
5.65676e-07
-8.51264e-09
4.36719e-07
1.92127e-07
9.24201e-09
1.4911e-07
2.9951e-08
3.33025e-07
5.64421e-08
4.2272e-07
8.40658e-08
4.3635e-07
1.0913e-07
3.9071e-07
1.28837e-07
3.01255e-07
1.41226e-07
1.8207e-07
1.45126e-07
4.58287e-08
1.40067e-07
-9.62444e-08
1.26206e-07
-2.34393e-07
1.04252e-07
-3.60328e-07
7.53817e-08
-4.67219e-07
4.11382e-08
-5.49656e-07
3.34033e-09
-6.03616e-07
-3.60096e-08
-6.26437e-07
-7.4819e-08
-6.16812e-07
-1.10999e-07
-5.74815e-07
-1.42563e-07
-5.01892e-07
-1.67727e-07
-4.00898e-07
-1.85005e-07
-2.76149e-07
-1.93307e-07
-1.3348e-07
-1.92041e-07
1.96893e-08
-1.81204e-07
1.74294e-07
-1.61471e-07
3.19586e-07
-1.34284e-07
4.43122e-07
-1.01928e-07
5.30777e-07
-6.76031e-08
5.6675e-07
-3.54925e-08
5.33564e-07
-1.08241e-08
4.12062e-07
1.81306e-07
1.08089e-08
1.383e-07
3.5049e-08
3.08783e-07
6.60398e-08
3.91728e-07
9.8309e-08
4.04076e-07
1.27519e-07
3.615e-07
1.50392e-07
2.78385e-07
1.64631e-07
1.67825e-07
1.68874e-07
4.15792e-08
1.62585e-07
-8.99568e-08
1.45967e-07
-2.17773e-07
1.1986e-07
-3.34225e-07
8.56507e-08
-4.33017e-07
4.51607e-08
-5.0917e-07
5.33364e-10
-5.5899e-07
-4.5876e-08
-5.80029e-07
-9.16069e-08
-5.71086e-07
-1.34203e-07
-5.32227e-07
-1.71328e-07
-4.64776e-07
-2.00879e-07
-3.71356e-07
-2.21104e-07
-2.55932e-07
-2.30715e-07
-1.23875e-07
-2.29007e-07
1.79762e-08
-2.1597e-07
1.61252e-07
-1.92394e-07
2.96005e-07
-1.59979e-07
4.107e-07
-1.21425e-07
4.92214e-07
-8.05292e-08
5.25845e-07
-4.22657e-08
4.95298e-07
-1.28758e-08
3.8268e-07
1.68413e-07
1.21704e-08
1.26128e-07
3.94471e-08
2.81505e-07
7.42773e-08
3.56901e-07
1.10479e-07
3.67869e-07
1.43166e-07
3.28806e-07
1.68666e-07
2.52888e-07
1.84412e-07
1.52077e-07
1.8888e-07
3.71022e-08
1.81484e-07
-8.25714e-08
1.62475e-07
-1.98764e-07
1.32812e-07
-3.04559e-07
9.40568e-08
-3.94263e-07
4.82611e-08
-4.63379e-07
-2.15825e-09
-5.08572e-07
-5.45478e-08
-5.27638e-07
-1.06138e-07
-5.19494e-07
-1.54165e-07
-4.84199e-07
-1.95999e-07
-4.22943e-07
-2.29272e-07
-3.38084e-07
-2.52006e-07
-2.33199e-07
-2.62744e-07
-1.13135e-07
-2.60683e-07
1.59176e-08
-2.45801e-07
1.46371e-07
-2.18978e-07
2.69182e-07
-1.82122e-07
3.73843e-07
-1.38279e-07
4.48371e-07
-9.17435e-08
4.79313e-07
-4.81698e-08
4.51736e-07
-1.46877e-08
3.49196e-07
1.53723e-07
1.3341e-08
1.12786e-07
4.31785e-08
2.51663e-07
8.12047e-08
3.18878e-07
1.20646e-07
3.28426e-07
1.5616e-07
2.93279e-07
1.83762e-07
2.25282e-07
2.00681e-07
1.3516e-07
2.05273e-07
3.25099e-08
1.96914e-07
-7.42208e-08
1.75894e-07
-1.77748e-07
1.43277e-07
-2.71937e-07
1.00775e-07
-3.51754e-07
5.06244e-08
-4.13225e-07
-4.54117e-09
-4.53405e-07
-6.18276e-08
-4.70349e-07
-1.18215e-07
-4.63103e-07
-1.70691e-07
-4.31717e-07
-2.16391e-07
-3.77236e-07
-2.5273e-07
-3.01738e-07
-2.77547e-07
-2.08373e-07
-2.89248e-07
-1.01426e-07
-2.86942e-07
1.36207e-08
-2.70591e-07
1.30027e-07
-2.4114e-07
2.39738e-07
-2.00656e-07
3.33366e-07
-1.52456e-07
4.00181e-07
-1.01237e-07
4.28109e-07
-5.32135e-08
4.03726e-07
-1.62558e-08
3.12228e-07
1.37487e-07
1.43256e-08
9.84621e-08
4.625e-08
2.19729e-07
8.68215e-08
2.78305e-07
1.28802e-07
2.86451e-07
1.66497e-07
2.55573e-07
1.95684e-07
1.96087e-07
2.1345e-07
1.17395e-07
2.18075e-07
2.78917e-08
2.08915e-07
-6.50613e-08
1.86291e-07
-1.55131e-07
1.51351e-07
-2.37e-07
1.05926e-07
-3.06328e-07
5.23975e-08
-3.59696e-07
-6.4378e-09
-3.94574e-07
-6.75071e-08
-4.09287e-07
-1.27602e-07
-4.03016e-07
-1.83526e-07
-3.75802e-07
-2.32232e-07
-3.28537e-07
-2.70974e-07
-2.63002e-07
-2.97449e-07
-1.81902e-07
-3.09952e-07
-8.89275e-08
-3.07524e-07
1.11866e-08
-2.90103e-07
1.12599e-07
-2.58673e-07
2.08303e-07
-2.15413e-07
2.90103e-07
-1.63834e-07
3.48603e-07
-1.08938e-07
3.73212e-07
-5.73663e-08
3.52142e-07
-1.75579e-08
2.72414e-07
1.19925e-07
1.51096e-08
8.33551e-08
4.86131e-08
1.86215e-07
9.10303e-08
2.35878e-07
1.34799e-07
2.42694e-07
1.73994e-07
2.16379e-07
2.04235e-07
1.65838e-07
2.22521e-07
9.91023e-08
2.27096e-07
2.33148e-08
2.17322e-07
-5.52861e-08
1.93546e-07
-1.31359e-07
1.56972e-07
-2.00434e-07
1.09515e-07
-2.58877e-07
5.36575e-08
-3.0384e-07
-7.69494e-09
-3.3322e-07
-7.1354e-08
-3.45629e-07
-1.33992e-07
-3.4038e-07
-1.92289e-07
-3.17506e-07
-2.43084e-07
-2.77743e-07
-2.8352e-07
-2.22566e-07
-3.11198e-07
-1.54223e-07
-3.24334e-07
-7.57927e-08
-3.21911e-07
8.76275e-09
-3.03844e-07
9.45312e-08
-2.71132e-07
1.75592e-07
-2.26014e-07
2.44989e-07
-1.72125e-07
2.94718e-07
-1.14653e-07
3.15739e-07
-6.05224e-08
2.98e-07
-1.85808e-08
2.30495e-07
1.01332e-07
1.56459e-08
6.77117e-08
5.01218e-08
1.5174e-07
9.35704e-08
1.92412e-07
1.38266e-07
1.98002e-07
1.78188e-07
1.7646e-07
2.08896e-07
1.35125e-07
2.27359e-07
8.06299e-08
2.31819e-07
1.88487e-08
2.21658e-07
-4.51206e-08
1.97252e-07
-1.06945e-07
1.59837e-07
-1.63016e-07
1.11368e-07
-2.1041e-07
5.43758e-08
-2.46848e-07
-8.18812e-09
-2.70655e-07
-7.30874e-08
-2.80726e-07
-1.36947e-07
-2.76517e-07
-1.96402e-07
-2.58047e-07
-2.48242e-07
-2.25898e-07
-2.89562e-07
-1.8124e-07
-3.17917e-07
-1.25864e-07
-3.31476e-07
-6.22297e-08
-3.29185e-07
6.47664e-09
-3.10932e-07
7.62843e-08
-2.77707e-07
1.42375e-07
-2.31761e-07
1.99053e-07
-1.76769e-07
2.39731e-07
-1.17989e-07
2.56958e-07
-6.24564e-08
2.42477e-07
-1.92726e-08
1.87319e-07
8.20697e-08
1.58356e-08
5.18739e-08
5.04763e-08
1.17116e-07
9.39304e-08
1.48939e-07
1.385e-07
1.53424e-07
1.78224e-07
1.36736e-07
2.08709e-07
1.04645e-07
2.26958e-07
6.23793e-08
2.31247e-07
1.45505e-08
2.2099e-07
-3.48704e-08
1.96587e-07
-8.25446e-08
1.59287e-07
-1.25716e-07
1.11038e-07
-1.62164e-07
5.43499e-08
-1.90167e-07
-7.85181e-09
-2.08461e-07
-7.23665e-08
-2.16219e-07
-1.35859e-07
-2.13031e-07
-1.95003e-07
-1.98909e-07
-2.46622e-07
-1.74285e-07
-2.87836e-07
-1.40032e-07
-3.16209e-07
-9.74965e-08
-3.29909e-07
-4.85361e-08
-3.27865e-07
4.4273e-09
-3.09936e-07
5.8352e-08
-2.77076e-07
1.09514e-07
-2.315e-07
1.53472e-07
-1.76832e-07
1.85055e-07
-1.18272e-07
1.98392e-07
-6.27925e-08
1.87013e-07
-1.94848e-08
1.43986e-07
6.2582e-08
1.55013e-08
3.63614e-08
4.91689e-08
8.34662e-08
9.1266e-08
1.06833e-07
1.34366e-07
1.10318e-07
1.72727e-07
9.83697e-08
2.02117e-07
7.52553e-08
2.19662e-07
4.48374e-08
2.23718e-07
1.04934e-08
2.13745e-07
-2.49015e-08
1.90159e-07
-5.89607e-08
1.54183e-07
-8.9739e-08
1.07707e-07
-1.15684e-07
5.31429e-08
-1.35598e-07
-6.70582e-09
-1.48609e-07
-6.87777e-08
-1.54144e-07
-1.29885e-07
-1.5192e-07
-1.86849e-07
-1.41941e-07
-2.36628e-07
-1.24502e-07
-2.76455e-07
-1.00201e-07
-3.0398e-07
-6.9968e-08
-3.17418e-07
-3.50931e-08
-3.15712e-07
2.72666e-09
-2.98691e-07
4.13382e-08
-2.67244e-07
7.80736e-08
-2.23481e-07
1.09712e-07
-1.70883e-07
1.32459e-07
-1.14456e-07
1.41976e-07
-6.09311e-08
1.33492e-07
-1.89954e-08
1.02064e-07
4.35835e-08
1.43502e-08
2.1995e-08
4.5434e-08
5.2394e-08
8.43275e-08
6.79406e-08
1.24173e-07
7.04669e-08
1.59641e-07
6.28952e-08
1.86794e-07
4.80958e-08
2.02983e-07
2.86493e-08
2.06713e-07
6.76665e-09
1.97516e-07
-1.57052e-08
1.75808e-07
-3.72575e-08
1.42743e-07
-5.66791e-08
1.0007e-07
-7.30162e-08
5.00074e-08
-8.55396e-08
-4.88416e-09
-9.37208e-08
-6.18163e-08
-9.72153e-08
-1.17889e-07
-9.58503e-08
-1.70207e-07
-8.96251e-08
-2.15997e-07
-7.87148e-08
-2.52722e-07
-6.34788e-08
-2.78215e-07
-4.44773e-08
-2.90813e-07
-2.24963e-08
-2.89506e-07
1.41948e-09
-2.74096e-07
2.59278e-08
-2.45364e-07
4.93383e-08
-2.0523e-07
6.95737e-08
-1.5691e-07
8.41419e-08
-1.05061e-07
9.01369e-08
-5.59369e-08
8.43402e-08
-1.74669e-08
6.36047e-08
2.61186e-08
1.19682e-08
1.00167e-08
3.824e-08
2.61251e-08
7.14362e-08
3.47421e-08
1.05618e-07
3.62851e-08
1.36098e-07
3.24125e-08
1.5943e-07
2.47547e-08
1.73337e-07
1.47366e-08
1.76572e-07
3.53208e-09
1.68779e-07
-7.90994e-09
1.50356e-07
-1.88322e-08
1.22315e-07
-2.86371e-08
8.61599e-08
-3.68612e-08
4.37744e-08
-4.31542e-08
-2.68192e-09
-4.7264e-08
-5.08682e-08
-4.9028e-08
-9.83538e-08
-4.83633e-08
-1.4271e-07
-4.52671e-08
-1.81603e-07
-3.98209e-08
-2.12887e-07
-3.21936e-08
-2.34712e-07
-2.26506e-08
-2.45637e-07
-1.15688e-08
-2.44758e-07
5.44207e-10
-2.31854e-07
1.30251e-08
-2.07537e-07
2.5022e-08
-1.7342e-07
3.54588e-08
-1.32278e-07
4.30065e-08
-8.81929e-08
4.60531e-08
-4.66155e-08
4.27716e-08
-1.44109e-08
3.13941e-08
1.17088e-08
7.83988e-09
2.1735e-09
2.64218e-08
7.53968e-09
5.06256e-08
1.0536e-08
7.58025e-08
1.11088e-08
9.83018e-08
9.91483e-09
1.15511e-07
7.54413e-09
1.25762e-07
4.47991e-09
1.28193e-07
1.09431e-09
1.22607e-07
-2.32797e-09
1.09341e-07
-5.5689e-09
8.91618e-08
-8.46082e-09
6.31738e-08
-1.0876e-08
3.27357e-08
-1.2719e-08
-6.09084e-10
-1.39219e-08
-3.51976e-08
-1.44416e-08
-6.93072e-08
-1.42557e-08
-1.01214e-07
-1.33622e-08
-1.29255e-07
-1.17824e-08
-1.51891e-07
-9.56033e-09
-1.67776e-07
-6.76646e-09
-1.75842e-07
-3.50289e-09
-1.75389e-07
8.99538e-11
-1.66192e-07
3.82536e-09
-1.48628e-07
7.45667e-09
-1.23822e-07
1.06571e-08
-9.38151e-08
1.30011e-08
-6.17201e-08
1.39344e-08
-3.17565e-08
1.28217e-08
-9.28368e-09
8.92191e-09
2.44312e-09
2.17328e-09
9.71119e-09
2.02443e-08
3.13492e-08
4.12628e-08
4.88087e-08
5.3291e-08
5.43867e-08
5.20591e-08
4.64905e-08
3.80301e-08
2.71548e-08
1.44366e-08
5.15879e-10
-1.39245e-08
-2.81793e-08
-4.15407e-08
-5.3322e-08
-6.28806e-08
-6.96451e-08
-7.31467e-08
-7.30559e-08
-6.92292e-08
-6.17702e-08
-5.11115e-08
-3.81087e-08
-2.41602e-08
-1.13472e-08
-2.43546e-09
)
;

boundaryField
{
    floor
    {
        type            calculated;
        value           uniform 0;
    }
    ceiling
    {
        type            calculated;
        value           uniform 0;
    }
    fixedWalls
    {
        type            calculated;
        value           uniform 0;
    }
    frontAndBack
    {
        type            empty;
    }
}


// ************************************************************************* //
