/*--------------------------------*- C++ -*----------------------------------*\
| =========                 |                                                 |
| \\      /  F ield         | OpenFOAM: The Open Source CFD Toolbox           |
|  \\    /   O peration     | Version:  2412                                  |
|   \\  /    A nd           | Website:  www.openfoam.com                      |
|    \\/     M anipulation  |                                                 |
\*---------------------------------------------------------------------------*/
FoamFile
{
    version     2.0;
    format      ascii;
    arch        "LSB;label=32;scalar=64";
    class       volVectorField;
    location    "400";
    object      U;
}
// * * * * * * * * * * * * * * * * * * * * * * * * * * * * * * * * * * * * * //

dimensions      [0 1 -1 0 0 0 0];

internalField   nonuniform List<vector> 
900
(
(-1.5717e-07 6.32606e-07 0)
(-2.36457e-05 5.29606e-06 0)
(-6.83972e-05 8.15334e-06 0)
(-0.000120871 8.77533e-06 0)
(-0.000171764 7.85623e-06 0)
(-0.000214423 6.01001e-06 0)
(-0.000244525 3.67925e-06 0)
(-0.000259637 1.15612e-06 0)
(-0.000258781 -1.36147e-06 0)
(-0.000242129 -3.7287e-06 0)
(-0.000210783 -5.83328e-06 0)
(-0.000166598 -7.58983e-06 0)
(-0.000112015 -8.93452e-06 0)
(-4.9921e-05 -9.81992e-06 0)
(1.64962e-05 -1.02196e-05 0)
(8.38674e-05 -1.0119e-05 0)
(0.000148763 -9.51415e-06 0)
(0.000207813 -8.41989e-06 0)
(0.000257841 -6.86733e-06 0)
(0.000295998 -4.90572e-06 0)
(0.000319913 -2.60419e-06 0)
(0.000327847 -5.54965e-08 0)
(0.00031888 2.6179e-06 0)
(0.000293092 5.25957e-06 0)
(0.00025183 7.64344e-06 0)
(0.000198055 9.43489e-06 0)
(0.000136829 1.01288e-05 0)
(7.57496e-05 9.04229e-06 0)
(2.54176e-05 5.39672e-06 0)
(-5.49577e-08 -2.97e-07 0)
(-6.02829e-06 2.48032e-05 0)
(-7.09155e-05 6.7599e-05 0)
(-0.000175138 9.21399e-05 0)
(-0.000294179 9.75639e-05 0)
(-0.00040892 8.822e-05 0)
(-0.000505305 6.85767e-05 0)
(-0.000573493 4.24947e-05 0)
(-0.000607531 1.30854e-05 0)
(-0.000604725 -1.71712e-05 0)
(-0.000565114 -4.62719e-05 0)
(-0.000491016 -7.25879e-05 0)
(-0.000386619 -9.4821e-05 0)
(-0.000257591 -0.00011197 0)
(-0.000110738 -0.000123302 0)
(4.63724e-05 -0.000128351 0)
(0.000205675 -0.00012688 0)
(0.000358979 -0.000118886 0)
(0.000498255 -0.000104624 0)
(0.000615976 -8.46011e-05 0)
(0.000705464 -5.96011e-05 0)
(0.000761245 -3.07024e-05 0)
(0.000779448 6.89964e-07 0)
(0.000758227 3.28114e-05 0)
(0.000698191 6.34872e-05 0)
(0.000602939 8.99754e-05 0)
(0.000479639 0.000108828 0)
(0.000339714 0.000115795 0)
(0.00019911 0.000106064 0)
(7.91299e-05 7.52676e-05 0)
(6.35723e-06 2.54525e-05 0)
(-9.82699e-06 7.26844e-05 0)
(-0.000103249 0.000174142 0)
(-0.000245555 0.000228122 0)
(-0.000405401 0.000238905 0)
(-0.000558475 0.000215672 0)
(-0.000686876 0.000167859 0)
(-0.000777642 0.000104024 0)
(-0.000822655 3.14743e-05 0)
(-0.000818037 -4.36837e-05 0)
(-0.000763602 -0.000116365 0)
(-0.000662303 -0.000182367 0)
(-0.000519705 -0.000238298 0)
(-0.000343463 -0.00028152 0)
(-0.00014285 -0.000310098 0)
(7.17746e-05 -0.000322775 0)
(0.000289315 -0.000318925 0)
(0.00049852 -0.000298564 0)
(0.000688376 -0.000262377 0)
(0.000848593 -0.00021172 0)
(0.000970095 -0.00014867 0)
(0.00104552 -7.60636e-05 0)
(0.00106977 2.4328e-06 0)
(0.00104055 8.22718e-05 0)
(0.000958986 0.00015794 0)
(0.000830179 0.000222739 0)
(0.000663871 0.000268647 0)
(0.00047505 0.000286345 0)
(0.000283983 0.000265771 0)
(0.000117743 0.000197685 0)
(1.08311e-05 7.9407e-05 0)
(-1.1474e-05 0.000133672 0)
(-0.000119829 0.000306148 0)
(-0.000282723 0.000393922 0)
(-0.000464378 0.000409804 0)
(-0.000637605 0.00036919 0)
(-0.000782615 0.000287229 0)
(-0.000884924 0.000177788 0)
(-0.000935319 5.30212e-05 0)
(-0.000929279 -7.66588e-05 0)
(-0.000866454 -0.000202422 0)
(-0.000750092 -0.000316886 0)
(-0.000586465 -0.00041405 0)
(-0.000384287 -0.000489213 0)
(-0.000154177 -0.000538914 0)
(9.19673e-05 -0.000560886 0)
(0.00034136 -0.000554005 0)
(0.000581054 -0.000518326 0)
(0.000798376 -0.000455083 0)
(0.000981521 -0.000366719 0)
(0.00112011 -0.000256944 0)
(0.00120579 -0.000130811 0)
(0.00123284 5.19757e-06 0)
(0.0011988 0.000143104 0)
(0.00110507 0.000273342 0)
(0.000957616 0.000384538 0)
(0.000767452 0.000463418 0)
(0.000551319 0.000494943 0)
(0.000331651 0.000462958 0)
(0.000138877 0.000351659 0)
(1.29451e-05 0.000149319 0)
(-1.16894e-05 0.000199699 0)
(-0.000124215 0.000448931 0)
(-0.000293532 0.000572621 0)
(-0.00048207 0.000593391 0)
(-0.000661574 0.000533729 0)
(-0.000811642 0.000414939 0)
(-0.000917326 0.000256452 0)
(-0.000969065 7.54997e-05 0)
(-0.000962104 -0.000112932 0)
(-0.00089601 -0.000295991 0)
(-0.000774097 -0.000462845 0)
(-0.000602856 -0.000604632 0)
(-0.000391362 -0.000714381 0)
(-0.000150708 -0.000786937 0)
(0.000106648 -0.000818907 0)
(0.000367294 -0.000808619 0)
(0.000617657 -0.00075617 0)
(0.000844454 -0.000663413 0)
(0.00103533 -0.000533996 0)
(0.00117946 -0.000373442 0)
(0.00126815 -0.000189245 0)
(0.0012955 9.03668e-06 0)
(0.00125902 0.000209702 0)
(0.00116027 0.000398837 0)
(0.0010055 0.000560114 0)
(0.000806151 0.00067476 0)
(0.000579536 0.000721712 0)
(0.000348865 0.00067816 0)
(0.000145997 0.000520553 0)
(1.3409e-05 0.000226263 0)
(-1.10276e-05 0.000265255 0)
(-0.000119941 0.000591686 0)
(-0.000284786 0.000751652 0)
(-0.000468636 0.000777325 0)
(-0.000643723 0.000698486 0)
(-0.000790034 0.000542684 0)
(-0.000892924 0.000334929 0)
(-0.000943012 9.7517e-05 0)
(-0.000935608 -0.000149998 0)
(-0.000870247 -0.00039072 0)
(-0.000750149 -0.00061034 0)
(-0.000581658 -0.000797091 0)
(-0.000373674 -0.000941687 0)
(-0.000137103 -0.00103724 0)
(0.000115798 -0.00107921 0)
(0.000371815 -0.00106535 0)
(0.000617586 -0.000995821 0)
(0.000840029 -0.000873095 0)
(0.00102699 -0.000702061 0)
(0.00116783 -0.000490097 0)
(0.00125404 -0.000247181 0)
(0.00127984 1.40081e-05 0)
(0.00124284 0.000278015 0)
(0.00114462 0.00052655 0)
(0.000991355 0.00073834 0)
(0.000794312 0.000889101 0)
(0.000570503 0.00095169 0)
(0.000342828 0.000896426 0)
(0.000142861 0.000691623 0)
(1.28371e-05 0.000303737 0)
(-9.87168e-06 0.000326585 0)
(-0.000109844 0.000726423 0)
(-0.000262244 0.000921314 0)
(-0.00043271 0.000951933 0)
(-0.000595267 0.000854967 0)
(-0.000731127 0.000663958 0)
(-0.000826553 0.000409259 0)
(-0.000872739 0.000118008 0)
(-0.000865272 -0.00018588 0)
(-0.000803697 -0.000481644 0)
(-0.000691008 -0.000751643 0)
(-0.000533127 -0.000981326 0)
(-0.000338379 -0.00115918 0)
(-0.000116972 -0.00127665 0)
(0.000119608 -0.00132807 0)
(0.000358982 -0.00131067 0)
(0.00058863 -0.00122464 0)
(0.00079629 -0.00107307 0)
(0.000970577 -0.000862042 0)
(0.00110153 -0.00060072 0)
(0.00118119 -0.000301471 0)
(0.00120417 2.00291e-05 0)
(0.00116825 0.000344724 0)
(0.00107496 0.000650137 0)
(0.000930126 0.00091025 0)
(0.000744366 0.00109549 0)
(0.000533733 0.00117283 0)
(0.000319876 0.00110591 0)
(0.000132603 0.000855187 0)
(1.16566e-05 0.000377196 0)
(-8.453e-06 0.000381284 0)
(-9.60178e-05 0.000847626 0)
(-0.000230444 0.00107462 0)
(-0.000381305 0.00111009 0)
(-0.000525416 0.000996854 0)
(-0.000645903 0.000773901 0)
(-0.000730416 0.000476481 0)
(-0.000771034 0.000136173 0)
(-0.000763781 -0.000219108 0)
(-0.000708238 -0.000565064 0)
(-0.000607074 -0.000881002 0)
(-0.000465587 -0.00114982 0)
(-0.000291225 -0.00135797 0)
(-9.31264e-05 -0.00149535 0)
(0.000118418 -0.00155529 0)
(0.000332337 -0.00153452 0)
(0.00053742 -0.00143327 0)
(0.000722681 -0.00125518 0)
(0.000877925 -0.00100743 0)
(0.000994232 -0.00070082 0)
(0.00106448 -0.000349914 0)
(0.00108385 2.68646e-05 0)
(0.00105038 0.000407154 0)
(0.000965471 0.000764626 0)
(0.000834398 0.00106889 0)
(0.000666781 0.00128551 0)
(0.000477158 0.00137598 0)
(0.000285138 0.00129779 0)
(0.000117592 0.00100432 0)
(1.01308e-05 0.00044361 0)
(-6.91172e-06 0.00042789 0)
(-7.99807e-05 0.000951685 0)
(-0.000192877 0.00120682 0)
(-0.000319987 0.0012468 0)
(-0.000441616 0.00111964 0)
(-0.000543324 0.00086901 0)
(-0.000614519 0.000534445 0)
(-0.0006484 0.000151422 0)
(-0.000641553 -0.000248634 0)
(-0.000593613 -0.000638323 0)
(-0.00050686 -0.000994279 0)
(-0.000385817 -0.00129717 0)
(-0.000236847 -0.00153166 0)
(-6.7752e-05 -0.00168631 0)
(0.000112675 -0.00175356 0)
(0.000294997 -0.00172971 0)
(0.000469642 -0.00161502 0)
(0.000627231 -0.00141361 0)
(0.000759052 -0.00113362 0)
(0.000857483 -0.000787282 0)
(0.000916437 -0.000391076 0)
(0.000931811 3.4161e-05 0)
(0.000901928 0.00046316 0)
(0.000828025 0.000866195 0)
(0.000714674 0.00120902 0)
(0.000570208 0.00145286 0)
(0.000407211 0.00155442 0)
(0.000242638 0.00146579 0)
(9.95801e-05 0.00113427 0)
(8.42423e-06 0.000501038 0)
(-5.33548e-06 0.000465608 0)
(-6.2835e-05 0.00103647 0)
(-0.000152202 0.00131495 0)
(-0.000253119 0.00135888 0)
(-0.000349815 0.00122038 0)
(-0.000430634 0.000946968 0)
(-0.000487007 0.000581721 0)
(-0.000513422 0.000163362 0)
(-0.000507118 -0.000273749 0)
(-0.000467802 -0.000699626 0)
(-0.000397321 -0.00108868 0)
(-0.000299331 -0.00141973 0)
(-0.000178969 -0.00167595 0)
(-4.25264e-05 -0.0018448 0)
(0.000102898 -0.00191797 0)
(0.000249709 -0.00189143 0)
(0.00039019 -0.00176543 0)
(0.00051678 -0.00154452 0)
(0.000622447 -0.00123761 0)
(0.000701035 -0.000858117 0)
(0.000747627 -0.000424129 0)
(0.000758906 4.15104e-05 0)
(0.000733529 0.0005111 0)
(0.000672521 0.000952058 0)
(0.000579636 0.00132689 0)
(0.000461706 0.00159318 0)
(0.000329041 0.00170359 0)
(0.000195507 0.00160575 0)
(7.98679e-05 0.00124207 0)
(6.64036e-06 0.00054834 0)
(-3.78187e-06 0.000494124 0)
(-4.53883e-05 0.00110098 0)
(-0.000110436 0.00139751 0)
(-0.00018409 0.00144461 0)
(-0.00025471 0.00129745 0)
(-0.000313624 0.00100647 0)
(-0.000354441 0.000617501 0)
(-0.00037305 0.000171792 0)
(-0.000367398 -0.000294005 0)
(-0.00033728 -0.000747884 0)
(-0.00028409 -0.00116253 0)
(-0.000210565 -0.00151531 0)
(-0.000120541 -0.00178826 0)
(-1.87038e-05 -0.00196798 0)
(8.96544e-05 -0.00204561 0)
(0.00019889 -0.00201683 0)
(0.000303261 -0.0018819 0)
(0.000397138 -0.00164567 0)
(0.000475279 -0.00131767 0)
(0.000533088 -0.000912251 0)
(0.000566888 -0.000448719 0)
(0.000574199 4.85047e-05 0)
(0.000554017 0.000549809 0)
(0.000507127 0.00102036 0)
(0.000436382 0.0014201 0)
(0.000346977 0.00170374 0)
(0.000246738 0.00182075 0)
(0.000146177 0.00171532 0)
(5.94358e-05 0.00132609 0)
(4.85028e-06 0.00058498 0)
(-2.2887e-06 0.000513479 0)
(-2.82328e-05 0.00114507 0)
(-6.90987e-05 0.00145413 0)
(-0.000115498 0.00150348 0)
(-0.000159952 0.00135031 0)
(-0.000196841 0.00104707 0)
(-0.000222013 0.000641519 0)
(-0.000232806 0.000176684 0)
(-0.000227907 -0.000309159 0)
(-0.000207207 -0.000782584 0)
(-0.000171642 -0.00121506 0)
(-0.00012302 -0.00158295 0)
(-6.38465e-05 -0.00186747 0)
(2.82406e-06 -0.00205466 0)
(7.35469e-05 -0.00213524 0)
(0.000144658 -0.00210471 0)
(0.000212426 -0.00196334 0)
(0.000273191 -0.00171619 0)
(0.000323535 -0.00137319 0)
(0.000360455 -0.000949358 0)
(0.000381538 -0.000464864 0)
(0.000385149 5.47645e-05 0)
(0.000370625 0.000578561 0)
(0.000338487 0.00107008 0)
(0.000290643 0.00148742 0)
(0.00023057 0.0017832 0)
(0.000163518 0.00190465 0)
(9.65297e-05 0.00179349 0)
(3.90277e-05 0.00138579 0)
(3.1105e-06 0.000610847 0)
(-8.80919e-07 0.000523969 0)
(-1.17967e-05 0.00116925 0)
(-2.93107e-05 0.00148532 0)
(-4.92892e-05 0.00153591 0)
(-6.83102e-05 0.00137929 0)
(-8.37652e-05 0.00106902 0)
(-9.37243e-05 0.000653948 0)
(-9.69661e-05 0.00017816 0)
(-9.29192e-05 -0.000319132 0)
(-8.15804e-05 -0.00080368 0)
(-6.34316e-05 -0.00124626 0)
(-3.93636e-05 -0.00162265 0)
(-1.05799e-05 -0.00191365 0)
(2.14789e-05 -0.00210491 0)
(5.5194e-05 -0.00218698 0)
(8.88459e-05 -0.00215524 0)
(0.000120681 -0.00200995 0)
(0.000148982 -0.00175628 0)
(0.000172133 -0.00140442 0)
(0.0001887 -0.000969725 0)
(0.000197518 -0.000472884 0)
(0.000197785 5.99424e-05 0)
(0.000189165 0.000596991 0)
(0.000171902 0.00110086 0)
(0.000146947 0.00152852 0)
(0.000116049 0.00183136 0)
(8.18725e-05 0.00195522 0)
(4.79986e-05 0.00184037 0)
(1.91951e-05 0.00142138 0)
(1.45989e-06 0.000626121 0)
(4.25315e-07 0.000526077 0)
(3.62179e-06 0.00117449 0)
(8.13133e-06 0.00149224 0)
(1.31331e-05 0.00154305 0)
(1.81953e-05 0.00138538 0)
(2.30416e-05 0.00107308 0)
(2.74642e-05 0.000655305 0)
(3.12954e-05 0.000176454 0)
(3.43876e-05 -0.000323976 0)
(3.66382e-05 -0.000811501 0)
(3.80011e-05 -0.00125671 0)
(3.84681e-05 -0.00163525 0)
(3.8085e-05 -0.00192776 0)
(3.69571e-05 -0.00211986 0)
(3.52202e-05 -0.00220203 0)
(3.30166e-05 -0.00216963 0)
(3.04902e-05 -0.0020229 0)
(2.77818e-05 -0.00176703 0)
(2.50073e-05 -0.00141229 0)
(2.22429e-05 -0.000974112 0)
(1.95225e-05 -0.00047332 0)
(1.68409e-05 6.37388e-05 0)
(1.41695e-05 0.000605054 0)
(1.14785e-05 0.0011129 0)
(8.77397e-06 0.00154386 0)
(6.12181e-06 0.00184887 0)
(3.66977e-06 0.00197328 0)
(1.63937e-06 0.00185684 0)
(3.23235e-07 0.00143363 0)
(-9.00525e-08 0.000631192 0)
(1.62149e-06 0.000520404 0)
(1.78328e-05 0.00116209 0)
(4.27028e-05 0.00147649 0)
(7.08246e-05 0.00152652 0)
(9.81849e-05 0.00137005 0)
(0.000121812 0.00106041 0)
(0.000139494 0.000646359 0)
(0.000149765 0.00017189 0)
(0.000151802 -0.000323836 0)
(0.000145401 -0.000806651 0)
(0.000130924 -0.00124744 0)
(0.000109198 -0.00162211 0)
(8.14382e-05 -0.00191151 0)
(4.91947e-05 -0.00210141 0)
(1.42434e-05 -0.0021824 0)
(-2.15243e-05 -0.00214987 0)
(-5.61825e-05 -0.00200407 0)
(-8.78503e-05 -0.00175014 0)
(-0.000114792 -0.00139821 0)
(-0.000135516 -0.000963572 0)
(-0.000148864 -0.000466817 0)
(-0.000154093 6.59517e-05 0)
(-0.000150948 0.000603001 0)
(-0.000139723 0.0011069 0)
(-0.00012131 0.00153452 0)
(-9.72428e-05 0.00183711 0)
(-6.97618e-05 0.00196037 0)
(-4.18202e-05 0.00184442 0)
(-1.73381e-05 0.00142379 0)
(-1.54123e-06 0.000626647 0)
(2.70414e-06 0.000507621 0)
(3.07304e-05 0.00113353 0)
(7.40976e-05 0.00143997 0)
(0.000123221 0.00148832 0)
(0.00017082 0.00133511 0)
(0.00021146 0.00103248 0)
(0.000241095 0.000628068 0)
(0.000257071 0.000164855 0)
(0.000257962 -0.000318925 0)
(0.000243467 -0.000789938 0)
(0.000214322 -0.00121981 0)
(0.000172124 -0.00158507 0)
(0.00011917 -0.00186708 0)
(5.83288e-05 -0.00205198 0)
(-7.12576e-06 -0.00213061 0)
(-7.36913e-05 -0.00209849 0)
(-0.000137802 -0.00195586 0)
(-0.000195979 -0.00170772 0)
(-0.000245005 -0.00136392 0)
(-0.00028209 -0.000939344 0)
(-0.000305045 -0.000454053 0)
(-0.000312442 6.65067e-05 0)
(-0.000303764 0.000591367 0)
(-0.000279553 0.00108395 0)
(-0.000241529 0.00150208 0)
(-0.000192709 0.00179803 0)
(-0.00013754 0.0019186 0)
(-8.19109e-05 0.00180512 0)
(-3.36228e-05 0.00139342 0)
(-2.88217e-06 0.000613218 0)
(3.67367e-06 0.000488431 0)
(4.22754e-05 0.00109041 0)
(0.000102188 0.00138474 0)
(0.000170072 0.00143061 0)
(0.000235712 0.00128256 0)
(0.000291469 0.000990889 0)
(0.000331655 0.000601497 0)
(0.000352558 0.000155779 0)
(0.000352223 -0.000309494 0)
(0.000330274 -0.000762287 0)
(0.00028778 -0.00117535 0)
(0.00022703 -0.0015262 0)
(0.000151306 -0.00179697 0)
(6.46647e-05 -0.00197436 0)
(-2.82808e-05 -0.00204961 0)
(-0.00012258 -0.0020184 0)
(-0.000213191 -0.00188099 0)
(-0.000295195 -0.00164215 0)
(-0.000364041 -0.00131133 0)
(-0.000415774 -0.000902766 0)
(-0.000447278 -0.000435707 0)
(-0.000456508 6.54277e-05 0)
(-0.000442709 0.000570876 0)
(-0.000406643 0.00104544 0)
(-0.000350774 0.00144846 0)
(-0.000279458 0.00173392 0)
(-0.000199138 0.00185041 0)
(-0.000118355 0.00174122 0)
(-4.84188e-05 0.00134431 0)
(-4.09084e-06 0.000591702 0)
(4.53515e-06 0.000463538 0)
(5.24875e-05 0.00103435 0)
(0.000126993 0.00131291 0)
(0.000211376 0.00135564 0)
(0.000292822 0.0012145 0)
(0.000361764 0.000937321 0)
(0.000411077 0.000567755 0)
(0.000436121 0.000145088 0)
(0.000434495 -0.00029584 0)
(0.000405782 -0.000724717 0)
(0.000351346 -0.00111578 0)
(0.000274081 -0.00144778 0)
(0.000178139 -0.00170389 0)
(6.86372e-05 -0.00187158 0)
(-4.86328e-05 -0.00194255 0)
(-0.000167447 -0.00191275 0)
(-0.000281469 -0.00178241 0)
(-0.000384509 -0.00155603 0)
(-0.000470838 -0.0012425 0)
(-0.000535474 -0.000855271 0)
(-0.000574481 -0.000412487 0)
(-0.000585267 6.27734e-05 0)
(-0.000566863 0.000542349 0)
(-0.000520217 0.000992875 0)
(-0.000448444 0.00137577 0)
(-0.000357073 0.00164725 0)
(-0.000254301 0.00175839 0)
(-0.000151025 0.00165515 0)
(-6.16797e-05 0.00127829 0)
(-5.16215e-06 0.000562862 0)
(5.29847e-06 0.000433623 0)
(6.14295e-05 0.000966947 0)
(0.000148632 0.00122658 0)
(0.000247298 0.00126565 0)
(0.000342347 0.00113299 0)
(0.00042256 0.000873455 0)
(0.000479596 0.000527936 0)
(0.000508025 0.000133175 0)
(0.000505071 -0.000278315 0)
(0.000470308 -0.000678312 0)
(0.000405377 -0.00104285 0)
(0.00031369 -0.00135218 0)
(0.000200141 -0.00159068 0)
(7.07706e-05 -0.00174675 0)
(-6.76074e-05 -0.0018127 0)
(-0.00020767 -0.00178475 0)
(-0.000341971 -0.00166312 0)
(-0.00046323 -0.00145197 0)
(-0.000564702 -0.00115954 0)
(-0.000640516 -0.000798293 0)
(-0.000686027 -0.000385079 0)
(-0.000698161 5.86531e-05 0)
(-0.000675757 0.000506682 0)
(-0.000619909 0.000927878 0)
(-0.000534279 0.00128618 0)
(-0.000425393 0.0015406 0)
(-0.000302955 0.00164525 0)
(-0.000179898 0.00154936 0)
(-7.34343e-05 0.00119718 0)
(-6.12429e-06 0.000527422 0)
(5.97674e-06 0.000399325 0)
(6.91851e-05 0.000889713 0)
(0.000167264 0.00112777 0)
(0.000278073 0.00116281 0)
(0.000384585 0.00104005 0)
(0.0004742 0.000800918 0)
(0.000537595 0.000483097 0)
(0.000568698 0.000120404 0)
(0.000564422 -0.000257304 0)
(0.000524349 -0.000624184 0)
(0.000450384 -0.000958346 0)
(0.00034639 -0.00124176 0)
(0.000217873 -0.00146017 0)
(7.1641e-05 -0.00160301 0)
(-8.46269e-05 -0.00166329 0)
(-0.00024268 -0.00163758 0)
(-0.000394143 -0.00152606 0)
(-0.000530824 -0.00133252 0)
(-0.000645129 -0.00106443 0)
(-0.000730439 -0.00073315 0)
(-0.000781507 -0.000354036 0)
(-0.000794847 5.33207e-05 0)
(-0.000769119 0.000464923 0)
(-0.000705524 0.000852219 0)
(-0.00060816 0.00118206 0)
(-0.000484363 0.0014167 0)
(-0.000345097 0.0015138 0)
(-0.000205015 0.00142639 0)
(-8.37517e-05 0.00110282 0)
(-7.01149e-06 0.00048618 0)
(6.58279e-06 0.000361234 0)
(7.58268e-05 0.000804085 0)
(0.000183014 0.00101842 0)
(0.000303875 0.00104922 0)
(0.000419771 0.000937631 0)
(0.000516972 0.000721277 0)
(0.000585397 0.000434254 0)
(0.000618503 0.000107123 0)
(0.000612965 -0.000233196 0)
(0.000568375 -0.000563458 0)
(0.000486866 -0.000864052 0)
(0.000372694 -0.00111886 0)
(0.000231874 -0.00131513 0)
(7.18175e-05 -0.00144345 0)
(-9.91014e-05 -0.00149755 0)
(-0.000271883 -0.0014744 0)
(-0.000437399 -0.00137416 0)
(-0.000586722 -0.00120017 0)
(-0.000711574 -0.000959111 0)
(-0.000804733 -0.00066109 0)
(-0.000860456 -0.000319837 0)
(-0.000874912 4.71075e-05 0)
(-0.000846599 0.000418203 0)
(-0.00077678 0.000767754 0)
(-0.000669873 0.00106585 0)
(-0.000533847 0.00127835 0)
(-0.000380665 0.00136688 0)
(-0.000226387 0.0012888 0)
(-9.26484e-05 0.00099709 0)
(-7.81069e-06 0.000439939 0)
(7.12437e-06 0.000319905 0)
(8.1378e-05 0.000711448 0)
(0.000195895 0.000900427 0)
(0.000324692 0.000926945 0)
(0.000447884 0.000827673 0)
(0.000550875 0.000636072 0)
(0.000623026 0.000382382 0)
(0.000657484 9.3635e-05 0)
(0.000650789 -0.000206416 0)
(0.00060255 -0.000497308 0)
(0.000515071 -0.000761839 0)
(0.000392928 -0.000985929 0)
(0.000242541 -0.00115847 0)
(7.17854e-05 -0.00127124 0)
(-0.000110451 -0.0013188 0)
(-0.000294611 -0.00129847 0)
(-0.000470997 -0.00121041 0)
(-0.000630129 -0.00105752 0)
(-0.00076321 -0.000845596 0)
(-0.000862555 -0.000583435 0)
(-0.000922038 -0.000283019 0)
(-0.00093755 4.03025e-05 0)
(-0.000907444 0.000367625 0)
(-0.000832997 0.000676321 0)
(-0.000718844 0.000939971 0)
(-0.000573404 0.00112834 0)
(-0.000409374 0.00120735 0)
(-0.000243877 0.0011391 0)
(-0.000100053 0.000881805 0)
(-8.4927e-06 0.000389364 0)
(7.5982e-06 0.000275895 0)
(8.5758e-05 0.000613239 0)
(0.000205692 0.00077575 0)
(0.000340149 0.000798135 0)
(0.000468414 0.000712162 0)
(0.000575323 0.000546862 0)
(0.000649878 0.000328421 0)
(0.000685052 8.0163e-05 0)
(0.000677347 -0.000177489 0)
(0.000626426 -0.000427001 0)
(0.000534715 -0.000653678 0)
(0.000407003 -0.000845545 0)
(0.000249996 -0.000993201 0)
(7.18875e-05 -0.00108969 0)
(-0.000118098 -0.00113041 0)
(-0.000310045 -0.00111311 0)
(-0.000493895 -0.00103789 0)
(-0.000659806 -0.000907196 0)
(-0.000798639 -0.000725915 0)
(-0.000902396 -0.000501486 0)
(-0.000964683 -0.000244066 0)
(-0.000981184 3.32845e-05 0)
(-0.000950124 0.000314419 0)
(-0.000872757 0.000579927 0)
(-0.000753828 0.000807056 0)
(-0.000602022 0.000969674 0)
(-0.000430498 0.00103829 0)
(-0.000257037 0.000980091 0)
(-0.000105814 0.000759003 0)
(-9.08373e-06 0.000335199 0)
(7.98196e-06 0.000229846 0)
(8.87001e-05 0.000511099 0)
(0.000211796 0.000646594 0)
(0.000349284 0.000665123 0)
(0.000480081 0.00059323 0)
(0.000588815 0.000455299 0)
(0.000664346 0.000273349 0)
(0.000699604 6.69031e-05 0)
(0.000691126 -0.000147031 0)
(0.000638656 -0.000353941 0)
(0.000544712 -0.000541707 0)
(0.000414189 -0.000700491 0)
(0.000253927 -0.000822608 0)
(7.22632e-05 -0.000902397 0)
(-0.000121434 -0.000936121 0)
(-0.000317109 -0.000921936 0)
(-0.000504562 -0.000859914 0)
(-0.000673812 -0.000752034 0)
(-0.000815574 -0.000602257 0)
(-0.000921706 -0.000416639 0)
(-0.000985675 -0.000203484 0)
(-0.00100303 2.64854e-05 0)
(-0.000971909 0.000259945 0)
(-0.000893493 0.000480787 0)
(-0.000772535 0.000670023 0)
(-0.000617795 0.000805758 0)
(-0.000442593 0.000863241 0)
(-0.000264936 0.000814996 0)
(-0.00010956 0.000631009 0)
(-9.58268e-06 0.000278416 0)
(8.22069e-06 0.000182594 0)
(8.96406e-05 0.000407095 0)
(0.000212985 0.000515649 0)
(0.000350256 0.000530676 0)
(0.000480522 0.000473338 0)
(0.000588592 0.000363277 0)
(0.000663443 0.000218273 0)
(0.000698097 5.40422e-05 0)
(0.000689194 -0.000115829 0)
(0.00063657 -0.000279853 0)
(0.000542802 -0.0004285 0)
(0.000412792 -0.00055407 0)
(0.000253335 -0.000650575 0)
(7.26964e-05 -0.000713623 0)
(-0.000119851 -0.000740328 0)
(-0.000314365 -0.000729259 0)
(-0.000500771 -0.000680463 0)
(-0.0006692 -0.000595457 0)
(-0.000810457 -0.000477293 0)
(-0.000916454 -0.000330661 0)
(-0.000980671 -0.00016202 0)
(-0.000998629 2.0236e-05 0)
(-0.000968382 0.000205606 0)
(-0.000891031 0.000381296 0)
(-0.00077121 0.000532108 0)
(-0.000617552 0.000640429 0)
(-0.000443214 0.000686291 0)
(-0.000266003 0.000647637 0)
(-0.000110549 0.000500625 0)
(-9.87565e-06 0.000220152 0)
(8.20132e-06 0.000135354 0)
(8.7592e-05 0.000304012 0)
(0.000207212 0.000386413 0)
(0.000340054 0.000398306 0)
(0.000465927 0.000355521 0)
(0.0005702 0.00027305 0)
(0.000642276 0.000164478 0)
(0.000675478 4.17586e-05 0)
(0.000666631 -8.48776e-05 0)
(0.000615659 -0.000206883 0)
(0.000525134 -0.00031725 0)
(0.000399831 -0.000410356 0)
(0.000246303 -0.000481852 0)
(7.24812e-05 -0.000528561 0)
(-0.000112761 -0.000548403 0)
(-0.000299921 -0.000540345 0)
(-0.000479371 -0.000504408 0)
(-0.000641672 -0.000441673 0)
(-0.000778011 -0.00035433 0)
(-0.000880603 -0.00024576 0)
(-0.000943132 -0.000120651 0)
(-0.00096121 1.48595e-05 0)
(-0.000932869 0.000153021 0)
(-0.000859066 0.000284287 0)
(-0.00074418 0.000397203 0)
(-0.000596473 0.000478368 0)
(-0.000428603 0.000512523 0)
(-0.000257766 0.000482887 0)
(-0.000107605 0.000371749 0)
(-9.81481e-06 0.00016206 0)
(7.69766e-06 9.00687e-05 0)
(8.10036e-05 0.000205858 0)
(0.000191439 0.000263654 0)
(0.000314223 0.000272661 0)
(0.000430615 0.000243761 0)
(0.000526997 0.000187555 0)
(0.000593539 0.000113632 0)
(0.000624131 3.03048e-05 0)
(0.000615932 -5.54138e-05 0)
(0.00056897 -0.000137752 0)
(0.000485708 -0.000212046 0)
(0.000370604 -0.000274602 0)
(0.000229702 -0.000322585 0)
(7.02648e-05 -0.000353932 0)
(-9.96158e-05 -0.000367299 0)
(-0.000271295 -0.000362012 0)
(-0.000436012 -0.000338075 0)
(-0.00058517 -0.000296177 0)
(-0.000710713 -0.000237724 0)
(-0.000805489 -0.000164904 0)
(-0.000863644 -8.07738e-05 0)
(-0.000881051 1.06222e-05 0)
(-0.000855779 0.000104115 0)
(-0.000788578 0.000193247 0)
(-0.000683379 0.000270147 0)
(-0.000547766 0.000325461 0)
(-0.000393486 0.000348411 0)
(-0.000236582 0.000327134 0)
(-9.88546e-05 0.00024973 0)
(-9.15018e-06 0.000106719 0)
(6.3687e-06 4.96512e-05 0)
(6.7733e-05 0.000118105 0)
(0.000161618 0.000153491 0)
(0.000266765 0.000159603 0)
(0.000366756 0.000143071 0)
(0.000449594 0.000110505 0)
(0.000506745 6.77881e-05 0)
(0.000533033 1.98666e-05 0)
(0.000526163 -2.91977e-05 0)
(0.0004863 -7.61295e-05 0)
(0.000415651 -0.000118328 0)
(0.000318082 -0.000153765 0)
(0.000198754 -0.000180901 0)
(6.38088e-05 -0.000198625 0)
(-7.9948e-05 -0.000206218 0)
(-0.000225271 -0.000203316 0)
(-0.000364819 -0.000189909 0)
(-0.000491372 -0.000166361 0)
(-0.000598138 -0.00013342 0)
(-0.000679042 -9.22611e-05 0)
(-0.000729055 -4.45413e-05 0)
(-0.00074456 7.51622e-06 0)
(-0.000723761 6.10256e-05 0)
(-0.000667122 0.00011231 0)
(-0.00057786 0.000156784 0)
(-0.000462427 0.000188856 0)
(-0.000331067 0.000201885 0)
(-0.000197845 0.00018846 0)
(-8.17903e-05 0.000141535 0)
(-7.46052e-06 5.77841e-05 0)
(3.55848e-06 1.92411e-05 0)
(4.5419e-05 4.93895e-05 0)
(0.000113189 6.55891e-05 0)
(0.000190416 6.86846e-05 0)
(0.000264217 6.19673e-05 0)
(0.000325343 4.85932e-05 0)
(0.000367449 3.1215e-05 0)
(0.000386848 1.19257e-05 0)
(0.000382052 -7.64327e-06 0)
(0.000353353 -2.62246e-05 0)
(0.000302484 -4.28365e-05 0)
(0.000232315 -5.67277e-05 0)
(0.000146594 -6.73368e-05 0)
(4.97288e-05 -7.4262e-05 0)
(-5.34334e-05 -7.72483e-05 0)
(-0.00015776 -7.61628e-05 0)
(-0.000258045 -7.09964e-05 0)
(-0.00034916 -6.18755e-05 0)
(-0.000426249 -4.90635e-05 0)
(-0.00048493 -3.29794e-05 0)
(-0.000521521 -1.42255e-05 0)
(-0.000533295 6.37464e-06 0)
(-0.000518779 2.77288e-05 0)
(-0.0004781 4.84055e-05 0)
(-0.000413397 6.65386e-05 0)
(-0.000329291 7.97464e-05 0)
(-0.000233454 8.50061e-05 0)
(-0.00013672 7.88294e-05 0)
(-5.39689e-05 5.76564e-05 0)
(-4.04392e-06 2.13729e-05 0)
(-2.04227e-07 2.34238e-06 0)
(1.47702e-05 6.55021e-06 0)
(4.37188e-05 8.53184e-06 0)
(7.76862e-05 8.8728e-06 0)
(0.000110246 8.18742e-06 0)
(0.000137098 6.90855e-06 0)
(0.0001555 5.34463e-06 0)
(0.000163992 3.69287e-06 0)
(0.000162089 2.08158e-06 0)
(0.000150051 5.96587e-07 0)
(0.000128706 -7.01598e-07 0)
(9.9321e-05 -1.76971e-06 0)
(6.34893e-05 -2.57723e-06 0)
(2.30498e-05 -3.10253e-06 0)
(-1.99976e-05 -3.33407e-06 0)
(-6.3554e-05 -3.26456e-06 0)
(-0.000105486 -2.8914e-06 0)
(-0.000143684 -2.22039e-06 0)
(-0.000176135 -1.26277e-06 0)
(-0.000200998 -3.82343e-08 0)
(-0.000216687 1.421e-06 0)
(-0.000221977 3.06661e-06 0)
(-0.000216116 4.83178e-06 0)
(-0.000199001 6.61749e-06 0)
(-0.000171368 8.26622e-06 0)
(-0.000135073 9.55062e-06 0)
(-9.34242e-05 1.01055e-05 0)
(-5.15338e-05 9.48863e-06 0)
(-1.68566e-05 6.96131e-06 0)
(4.63054e-07 2.09017e-06 0)
)
;

boundaryField
{
    floor
    {
        type            noSlip;
    }
    ceiling
    {
        type            noSlip;
    }
    fixedWalls
    {
        type            noSlip;
    }
    frontAndBack
    {
        type            empty;
    }
}


// ************************************************************************* //
