/*--------------------------------*- C++ -*----------------------------------*\
| =========                 |                                                 |
| \\      /  F ield         | OpenFOAM: The Open Source CFD Toolbox           |
|  \\    /   O peration     | Version:  2412                                  |
|   \\  /    A nd           | Website:  www.openfoam.com                      |
|    \\/     M anipulation  |                                                 |
\*---------------------------------------------------------------------------*/
FoamFile
{
    version     2.0;
    format      ascii;
    arch        "LSB;label=32;scalar=64";
    class       volScalarField;
    location    "100";
    object      p;
}
// * * * * * * * * * * * * * * * * * * * * * * * * * * * * * * * * * * * * * //

dimensions      [0 2 -2 0 0 0 0];

internalField   nonuniform List<scalar> 
40000
(
0
3.07043e-06
1.45846e-05
3.03475e-05
4.93196e-05
6.96744e-05
8.99478e-05
0.000109108
0.000126543
0.000141992
0.000155422
0.000166963
0.000176797
0.000185157
0.000192248
0.000198265
0.000203401
0.000207807
0.000211609
0.000214902
0.000217782
0.000220306
0.000222541
0.000224539
0.000226335
0.000227954
0.000229416
0.00023074
0.000231955
0.000233073
0.000234105
0.000235057
0.000235938
0.000236759
0.000237518
0.000238246
0.000238916
0.000239559
0.000240147
0.000240707
0.000241239
0.000241735
0.000242219
0.000242687
0.00024312
0.000243533
0.000243938
0.000244327
0.000244696
0.000245052
0.000245393
0.000245717
0.00024603
0.00024634
0.000246643
0.000246935
0.000247215
0.000247486
0.000247744
0.000247992
0.000248237
0.000248479
0.000248714
0.000248939
0.000249156
0.000249368
0.000249575
0.000249777
0.000249976
0.00025017
0.000250357
0.000250534
0.000250705
0.000250875
0.000251041
0.000251203
0.000251361
0.000251515
0.000251665
0.000251808
0.000251947
0.000252085
0.000252224
0.000252359
0.000252491
0.000252622
0.000252752
0.00025288
0.000253003
0.000253122
0.00025324
0.000253359
0.000253476
0.000253589
0.000253697
0.000253802
0.000253906
0.000254006
0.000254101
0.000254191
0.000254281
0.000254369
0.000254454
0.000254537
0.000254616
0.000254692
0.000254765
0.000254835
0.000254903
0.000254971
0.00025504
0.000255108
0.000255172
0.00025523
0.000255286
0.000255342
0.000255398
0.000255451
0.000255501
0.000255547
0.000255589
0.000255629
0.000255665
0.000255697
0.000255725
0.000255749
0.000255768
0.00025578
0.000255787
0.000255788
0.000255787
0.000255782
0.000255772
0.000255755
0.00025573
0.000255698
0.000255661
0.000255619
0.000255571
0.000255517
0.000255457
0.000255393
0.000255326
0.00025525
0.000255164
0.000255067
0.00025496
0.000254842
0.000254717
0.000254588
0.000254455
0.000254312
0.000254152
0.00025397
0.00025377
0.000253555
0.000253324
0.000253075
0.000252807
0.000252518
0.000252206
0.000251866
0.000251494
0.000251087
0.000250642
0.000250153
0.000249616
0.000249022
0.00024837
0.000247651
0.000246856
0.000245975
0.000244992
0.000243889
0.000242652
0.000241258
0.00023968
0.000237887
0.000235834
0.000233471
0.000230743
0.000227567
0.000223854
0.000219489
0.000214334
0.000208226
0.00020097
0.000192353
0.000182145
0.000170127
0.000156123
0.000140046
0.000121989
0.000102318
8.17951e-05
6.16829e-05
4.382e-05
3.04305e-05
2.40752e-05
2.59816e-05
-0.000536482
-0.000535954
-0.000527943
-0.000514887
-0.00049877
-0.000481132
-0.000463254
-0.000446017
-0.000430017
-0.000415543
-0.000402726
-0.000391522
-0.000381842
-0.000373508
-0.000366353
-0.000360228
-0.000354968
-0.00035044
-0.000346528
-0.000343127
-0.000340156
-0.000337546
-0.00033524
-0.000333196
-0.000331364
-0.000329709
-0.000328214
-0.000326858
-0.000325622
-0.000324492
-0.000323452
-0.000322487
-0.000321592
-0.000320764
-0.000319987
-0.000319262
-0.000318583
-0.000317939
-0.000317339
-0.000316769
-0.000316232
-0.000315729
-0.000315247
-0.000314785
-0.000314347
-0.000313929
-0.00031353
-0.000313148
-0.000312775
-0.00031241
-0.000312062
-0.000311732
-0.000311413
-0.000311108
-0.000310816
-0.000310531
-0.000310248
-0.000309973
-0.000309708
-0.000309454
-0.000309207
-0.000308971
-0.000308743
-0.000308518
-0.000308296
-0.000308081
-0.000307874
-0.000307674
-0.000307475
-0.000307281
-0.000307096
-0.000306917
-0.000306743
-0.000306574
-0.00030641
-0.000306249
-0.00030609
-0.000305934
-0.000305785
-0.000305644
-0.000305505
-0.000305366
-0.000305228
-0.000305093
-0.00030496
-0.000304828
-0.000304698
-0.000304572
-0.000304451
-0.000304332
-0.000304211
-0.000304091
-0.000303975
-0.000303864
-0.000303755
-0.000303649
-0.000303544
-0.000303445
-0.000303351
-0.00030326
-0.00030317
-0.000303081
-0.000302996
-0.000302913
-0.000302833
-0.000302757
-0.000302685
-0.000302616
-0.000302547
-0.000302477
-0.000302407
-0.00030234
-0.000302278
-0.00030222
-0.000302163
-0.000302107
-0.000302051
-0.000301999
-0.000301951
-0.000301904
-0.000301861
-0.000301822
-0.000301786
-0.000301755
-0.000301728
-0.000301705
-0.000301686
-0.000301674
-0.000301667
-0.000301665
-0.000301666
-0.000301672
-0.000301683
-0.000301701
-0.000301727
-0.000301759
-0.000301796
-0.000301836
-0.000301882
-0.000301935
-0.000301995
-0.000302063
-0.000302135
-0.000302214
-0.000302301
-0.000302397
-0.000302498
-0.000302608
-0.000302731
-0.000302868
-0.000303016
-0.000303169
-0.00030333
-0.000303506
-0.000303701
-0.000303915
-0.000304148
-0.0003044
-0.000304672
-0.000304965
-0.000305283
-0.000305631
-0.000306011
-0.000306428
-0.000306884
-0.000307382
-0.000307927
-0.000308528
-0.000309193
-0.000309926
-0.000310739
-0.000311641
-0.000312645
-0.000313776
-0.000315052
-0.000316492
-0.000318127
-0.000319986
-0.000322113
-0.000324566
-0.000327401
-0.000330697
-0.000334544
-0.00033905
-0.000344346
-0.000350577
-0.000357908
-0.00036651
-0.000376554
-0.000388189
-0.000401505
-0.000416498
-0.000432997
-0.000450601
-0.000468594
-0.000485891
-0.000500981
-0.000512091
-0.000516756
-0.000513716
-0.00161426
-0.00161646
-0.0016115
-0.00160131
-0.0015881
-0.00157324
-0.00155785
-0.00154274
-0.00152847
-0.00151534
-0.00150351
-0.00149303
-0.00148384
-0.00147584
-0.00146892
-0.00146292
-0.00145774
-0.00145325
-0.00144935
-0.00144596
-0.00144298
-0.00144036
-0.00143805
-0.00143599
-0.00143415
-0.00143249
-0.00143099
-0.00142962
-0.00142838
-0.00142724
-0.00142619
-0.00142523
-0.00142433
-0.0014235
-0.00142271
-0.00142199
-0.00142131
-0.00142067
-0.00142007
-0.0014195
-0.00141896
-0.00141845
-0.00141797
-0.00141751
-0.00141707
-0.00141665
-0.00141625
-0.00141587
-0.00141549
-0.00141514
-0.00141479
-0.00141446
-0.00141413
-0.00141382
-0.00141353
-0.00141325
-0.00141297
-0.0014127
-0.00141244
-0.00141218
-0.00141193
-0.00141169
-0.00141146
-0.00141124
-0.00141102
-0.00141081
-0.0014106
-0.00141039
-0.0014102
-0.00141
-0.00140982
-0.00140964
-0.00140947
-0.0014093
-0.00140913
-0.00140897
-0.00140881
-0.00140866
-0.00140851
-0.00140837
-0.00140823
-0.00140809
-0.00140796
-0.00140782
-0.00140769
-0.00140756
-0.00140743
-0.0014073
-0.00140718
-0.00140706
-0.00140694
-0.00140682
-0.0014067
-0.00140659
-0.00140648
-0.00140638
-0.00140627
-0.00140617
-0.00140608
-0.00140599
-0.0014059
-0.00140581
-0.00140572
-0.00140564
-0.00140556
-0.00140548
-0.00140541
-0.00140534
-0.00140527
-0.0014052
-0.00140513
-0.00140506
-0.001405
-0.00140494
-0.00140489
-0.00140483
-0.00140478
-0.00140472
-0.00140468
-0.00140463
-0.00140459
-0.00140455
-0.00140452
-0.00140448
-0.00140446
-0.00140443
-0.00140442
-0.00140441
-0.0014044
-0.0014044
-0.0014044
-0.0014044
-0.00140441
-0.00140443
-0.00140446
-0.00140449
-0.00140452
-0.00140457
-0.00140461
-0.00140466
-0.00140472
-0.00140478
-0.00140486
-0.00140494
-0.00140503
-0.00140513
-0.00140524
-0.00140534
-0.00140546
-0.00140559
-0.00140573
-0.00140589
-0.00140606
-0.00140624
-0.00140644
-0.00140665
-0.00140689
-0.00140714
-0.00140741
-0.0014077
-0.00140802
-0.00140837
-0.00140875
-0.00140917
-0.00140963
-0.00141013
-0.00141068
-0.00141129
-0.00141196
-0.0014127
-0.00141352
-0.00141443
-0.00141545
-0.00141658
-0.00141787
-0.00141932
-0.00142097
-0.00142285
-0.00142499
-0.00142745
-0.0014303
-0.00143359
-0.00143743
-0.0014419
-0.00144712
-0.00145321
-0.00146031
-0.00146855
-0.00147806
-0.00148892
-0.00150116
-0.00151472
-0.00152939
-0.00154478
-0.00156023
-0.00157481
-0.00158727
-0.00159619
-0.00159923
-0.00159526
-0.00321597
-0.00321904
-0.00321608
-0.00320829
-0.00319771
-0.00318549
-0.0031726
-0.00315974
-0.00314739
-0.00313587
-0.00312535
-0.0031159
-0.00310751
-0.00310012
-0.00309365
-0.003088
-0.00308308
-0.00307878
-0.00307502
-0.00307173
-0.00306884
-0.00306627
-0.003064
-0.00306197
-0.00306015
-0.00305852
-0.00305703
-0.00305569
-0.00305445
-0.00305332
-0.00305228
-0.00305132
-0.00305043
-0.0030496
-0.00304882
-0.0030481
-0.00304742
-0.00304678
-0.00304619
-0.00304562
-0.00304508
-0.00304457
-0.0030441
-0.00304364
-0.0030432
-0.00304278
-0.00304238
-0.00304199
-0.00304162
-0.00304126
-0.00304092
-0.00304059
-0.00304027
-0.00303997
-0.00303967
-0.00303938
-0.0030391
-0.00303883
-0.00303857
-0.00303832
-0.00303807
-0.00303783
-0.0030376
-0.00303738
-0.00303716
-0.00303695
-0.00303674
-0.00303653
-0.00303634
-0.00303615
-0.00303597
-0.00303579
-0.00303561
-0.00303544
-0.00303528
-0.00303512
-0.00303496
-0.00303481
-0.00303466
-0.00303452
-0.00303438
-0.00303424
-0.00303411
-0.00303397
-0.00303384
-0.00303371
-0.00303358
-0.00303346
-0.00303334
-0.00303321
-0.00303309
-0.00303297
-0.00303286
-0.00303275
-0.00303264
-0.00303253
-0.00303242
-0.00303233
-0.00303223
-0.00303214
-0.00303204
-0.00303195
-0.00303187
-0.00303178
-0.0030317
-0.00303163
-0.00303155
-0.00303148
-0.00303141
-0.00303134
-0.00303127
-0.00303121
-0.00303115
-0.00303109
-0.00303103
-0.00303097
-0.00303092
-0.00303087
-0.00303082
-0.00303078
-0.00303074
-0.0030307
-0.00303067
-0.00303064
-0.00303061
-0.00303059
-0.00303057
-0.00303056
-0.00303055
-0.00303055
-0.00303055
-0.00303055
-0.00303056
-0.00303058
-0.00303061
-0.00303064
-0.00303067
-0.00303071
-0.00303076
-0.00303081
-0.00303087
-0.00303093
-0.003031
-0.00303108
-0.00303117
-0.00303127
-0.00303138
-0.00303149
-0.00303161
-0.00303173
-0.00303187
-0.00303203
-0.0030322
-0.00303238
-0.00303258
-0.00303279
-0.00303303
-0.00303328
-0.00303355
-0.00303384
-0.00303416
-0.00303451
-0.00303489
-0.0030353
-0.00303576
-0.00303626
-0.00303681
-0.00303741
-0.00303808
-0.00303881
-0.00303962
-0.00304052
-0.00304153
-0.00304266
-0.00304393
-0.00304536
-0.00304699
-0.00304883
-0.00305093
-0.00305334
-0.0030561
-0.00305929
-0.00306297
-0.00306724
-0.00307218
-0.0030779
-0.00308451
-0.00309209
-0.00310074
-0.0031105
-0.00312135
-0.00313321
-0.00314587
-0.00315896
-0.00317191
-0.00318395
-0.00319402
-0.00320098
-0.00320275
-0.00319842
-0.00530969
-0.00531268
-0.00531093
-0.00530521
-0.00529706
-0.00528742
-0.00527703
-0.00526649
-0.00525622
-0.0052465
-0.00523749
-0.00522929
-0.00522191
-0.00521532
-0.00520948
-0.00520434
-0.0051998
-0.00519581
-0.00519229
-0.00518919
-0.00518643
-0.00518399
-0.0051818
-0.00517985
-0.00517808
-0.00517649
-0.00517504
-0.00517372
-0.00517252
-0.00517141
-0.00517039
-0.00516944
-0.00516857
-0.00516774
-0.00516698
-0.00516626
-0.00516559
-0.00516496
-0.00516437
-0.00516381
-0.00516327
-0.00516277
-0.00516229
-0.00516184
-0.0051614
-0.00516099
-0.00516059
-0.0051602
-0.00515983
-0.00515948
-0.00515914
-0.00515881
-0.0051585
-0.00515819
-0.0051579
-0.00515761
-0.00515733
-0.00515706
-0.0051568
-0.00515655
-0.00515631
-0.00515607
-0.00515584
-0.00515561
-0.0051554
-0.00515518
-0.00515498
-0.00515477
-0.00515458
-0.00515439
-0.0051542
-0.00515403
-0.00515385
-0.00515369
-0.00515352
-0.00515336
-0.0051532
-0.00515305
-0.00515291
-0.00515277
-0.00515262
-0.00515249
-0.00515235
-0.00515222
-0.00515209
-0.00515195
-0.00515183
-0.00515171
-0.00515159
-0.00515146
-0.00515134
-0.00515122
-0.00515111
-0.005151
-0.00515088
-0.00515078
-0.00515067
-0.00515057
-0.00515048
-0.00515038
-0.00515029
-0.0051502
-0.00515011
-0.00515002
-0.00514994
-0.00514987
-0.0051498
-0.00514972
-0.00514965
-0.00514958
-0.00514951
-0.00514945
-0.00514939
-0.00514933
-0.00514927
-0.00514922
-0.00514916
-0.00514911
-0.00514907
-0.00514902
-0.00514898
-0.00514895
-0.00514892
-0.00514889
-0.00514886
-0.00514884
-0.00514882
-0.00514881
-0.0051488
-0.0051488
-0.0051488
-0.0051488
-0.00514881
-0.00514883
-0.00514885
-0.00514888
-0.00514891
-0.00514895
-0.005149
-0.00514905
-0.00514911
-0.00514917
-0.00514924
-0.00514932
-0.00514941
-0.0051495
-0.0051496
-0.00514971
-0.00514984
-0.00514997
-0.00515011
-0.00515026
-0.00515042
-0.0051506
-0.0051508
-0.00515101
-0.00515124
-0.00515149
-0.00515176
-0.00515205
-0.00515236
-0.00515271
-0.00515309
-0.0051535
-0.00515394
-0.00515444
-0.00515498
-0.00515557
-0.00515623
-0.00515694
-0.00515774
-0.00515862
-0.0051596
-0.0051607
-0.00516193
-0.00516332
-0.00516488
-0.00516665
-0.00516865
-0.00517094
-0.00517355
-0.00517654
-0.00517997
-0.00518391
-0.00518843
-0.00519361
-0.00519953
-0.00520624
-0.00521381
-0.00522223
-0.00523149
-0.00524146
-0.00525196
-0.00526265
-0.00527309
-0.00528263
-0.00529046
-0.00529567
-0.00529662
-0.00529266
-0.00785699
-0.00785935
-0.00785833
-0.00785431
-0.00784837
-0.00784115
-0.00783321
-0.007825
-0.00781685
-0.007809
-0.00780162
-0.00779478
-0.00778855
-0.0077829
-0.00777783
-0.00777329
-0.00776925
-0.00776566
-0.00776246
-0.0077596
-0.00775705
-0.00775476
-0.00775271
-0.00775086
-0.00774918
-0.00774766
-0.00774627
-0.007745
-0.00774383
-0.00774275
-0.00774176
-0.00774083
-0.00773997
-0.00773917
-0.00773843
-0.00773773
-0.00773706
-0.00773644
-0.00773585
-0.0077353
-0.00773478
-0.00773428
-0.00773381
-0.00773336
-0.00773293
-0.00773252
-0.00773212
-0.00773174
-0.00773138
-0.00773103
-0.00773069
-0.00773036
-0.00773005
-0.00772974
-0.00772945
-0.00772917
-0.00772889
-0.00772862
-0.00772836
-0.00772811
-0.00772787
-0.00772764
-0.00772741
-0.00772718
-0.00772697
-0.00772675
-0.00772655
-0.00772635
-0.00772615
-0.00772597
-0.00772578
-0.0077256
-0.00772543
-0.00772526
-0.0077251
-0.00772494
-0.00772478
-0.00772464
-0.00772449
-0.00772435
-0.00772421
-0.00772407
-0.00772394
-0.0077238
-0.00772367
-0.00772354
-0.00772342
-0.0077233
-0.00772317
-0.00772305
-0.00772293
-0.00772281
-0.0077227
-0.00772258
-0.00772247
-0.00772236
-0.00772226
-0.00772216
-0.00772206
-0.00772197
-0.00772187
-0.00772178
-0.00772169
-0.00772161
-0.00772153
-0.00772145
-0.00772138
-0.0077213
-0.00772123
-0.00772116
-0.00772109
-0.00772103
-0.00772097
-0.00772091
-0.00772085
-0.0077208
-0.00772075
-0.0077207
-0.00772065
-0.00772061
-0.00772057
-0.00772054
-0.0077205
-0.00772047
-0.00772045
-0.00772043
-0.00772041
-0.0077204
-0.00772039
-0.00772039
-0.00772039
-0.00772039
-0.0077204
-0.00772042
-0.00772044
-0.00772046
-0.0077205
-0.00772054
-0.00772058
-0.00772063
-0.00772068
-0.00772074
-0.00772081
-0.00772089
-0.00772098
-0.00772107
-0.00772117
-0.00772128
-0.0077214
-0.00772153
-0.00772167
-0.00772181
-0.00772198
-0.00772215
-0.00772235
-0.00772256
-0.00772279
-0.00772303
-0.00772329
-0.00772358
-0.00772389
-0.00772422
-0.00772459
-0.00772499
-0.00772543
-0.00772591
-0.00772643
-0.00772701
-0.00772764
-0.00772834
-0.0077291
-0.00772995
-0.00773089
-0.00773194
-0.00773312
-0.00773443
-0.0077359
-0.00773756
-0.00773942
-0.00774154
-0.00774393
-0.00774665
-0.00774974
-0.00775325
-0.00775724
-0.00776176
-0.00776685
-0.00777255
-0.00777889
-0.00778584
-0.00779337
-0.00780137
-0.00780965
-0.00781796
-0.00782592
-0.00783307
-0.00783881
-0.00784249
-0.00784298
-0.00783988
-0.0108142
-0.0108156
-0.010815
-0.0108124
-0.0108085
-0.0108035
-0.0107978
-0.0107919
-0.0107858
-0.0107798
-0.0107741
-0.0107687
-0.0107636
-0.010759
-0.0107548
-0.0107509
-0.0107474
-0.0107443
-0.0107415
-0.0107389
-0.0107366
-0.0107345
-0.0107326
-0.0107309
-0.0107293
-0.0107279
-0.0107266
-0.0107254
-0.0107242
-0.0107232
-0.0107223
-0.0107214
-0.0107205
-0.0107198
-0.010719
-0.0107184
-0.0107177
-0.0107171
-0.0107165
-0.010716
-0.0107155
-0.010715
-0.0107145
-0.0107141
-0.0107136
-0.0107132
-0.0107128
-0.0107125
-0.0107121
-0.0107118
-0.0107114
-0.0107111
-0.0107108
-0.0107105
-0.0107102
-0.0107099
-0.0107097
-0.0107094
-0.0107091
-0.0107089
-0.0107086
-0.0107084
-0.0107082
-0.010708
-0.0107077
-0.0107075
-0.0107073
-0.0107071
-0.0107069
-0.0107067
-0.0107066
-0.0107064
-0.0107062
-0.010706
-0.0107059
-0.0107057
-0.0107056
-0.0107054
-0.0107053
-0.0107051
-0.010705
-0.0107049
-0.0107047
-0.0107046
-0.0107045
-0.0107043
-0.0107042
-0.0107041
-0.010704
-0.0107038
-0.0107037
-0.0107036
-0.0107035
-0.0107034
-0.0107033
-0.0107032
-0.0107031
-0.0107029
-0.0107029
-0.0107028
-0.0107027
-0.0107026
-0.0107025
-0.0107024
-0.0107023
-0.0107022
-0.0107022
-0.0107021
-0.010702
-0.0107019
-0.0107019
-0.0107018
-0.0107017
-0.0107017
-0.0107016
-0.0107016
-0.0107015
-0.0107015
-0.0107014
-0.0107014
-0.0107014
-0.0107013
-0.0107013
-0.0107013
-0.0107012
-0.0107012
-0.0107012
-0.0107012
-0.0107012
-0.0107012
-0.0107012
-0.0107012
-0.0107012
-0.0107012
-0.0107012
-0.0107012
-0.0107013
-0.0107013
-0.0107014
-0.0107014
-0.0107015
-0.0107015
-0.0107016
-0.0107017
-0.0107017
-0.0107018
-0.0107019
-0.010702
-0.0107022
-0.0107023
-0.0107024
-0.0107026
-0.0107027
-0.0107029
-0.0107031
-0.0107033
-0.0107035
-0.0107038
-0.010704
-0.0107043
-0.0107046
-0.0107049
-0.0107053
-0.0107057
-0.0107061
-0.0107065
-0.010707
-0.0107076
-0.0107082
-0.0107089
-0.0107096
-0.0107104
-0.0107113
-0.0107123
-0.0107134
-0.0107146
-0.0107159
-0.0107175
-0.0107191
-0.010721
-0.0107232
-0.0107256
-0.0107283
-0.0107313
-0.0107347
-0.0107384
-0.0107426
-0.0107472
-0.0107523
-0.0107577
-0.0107635
-0.0107695
-0.0107756
-0.0107816
-0.0107872
-0.0107921
-0.0107959
-0.0107983
-0.0107985
-0.0107965
-0.0141345
-0.014135
-0.0141346
-0.0141332
-0.0141309
-0.0141279
-0.0141244
-0.0141205
-0.0141164
-0.0141122
-0.0141081
-0.014104
-0.0141002
-0.0140966
-0.0140932
-0.0140901
-0.0140872
-0.0140846
-0.0140821
-0.0140799
-0.0140779
-0.014076
-0.0140743
-0.0140727
-0.0140713
-0.01407
-0.0140687
-0.0140676
-0.0140665
-0.0140656
-0.0140646
-0.0140638
-0.014063
-0.0140623
-0.0140615
-0.0140609
-0.0140603
-0.0140597
-0.0140591
-0.0140586
-0.0140581
-0.0140576
-0.0140572
-0.0140567
-0.0140563
-0.0140559
-0.0140555
-0.0140551
-0.0140548
-0.0140544
-0.0140541
-0.0140538
-0.0140535
-0.0140532
-0.0140529
-0.0140526
-0.0140524
-0.0140521
-0.0140518
-0.0140516
-0.0140514
-0.0140511
-0.0140509
-0.0140507
-0.0140505
-0.0140503
-0.0140501
-0.0140499
-0.0140497
-0.0140495
-0.0140493
-0.0140491
-0.014049
-0.0140488
-0.0140486
-0.0140485
-0.0140483
-0.0140482
-0.014048
-0.0140479
-0.0140477
-0.0140476
-0.0140475
-0.0140473
-0.0140472
-0.0140471
-0.014047
-0.0140468
-0.0140467
-0.0140466
-0.0140465
-0.0140463
-0.0140462
-0.0140461
-0.014046
-0.0140459
-0.0140458
-0.0140457
-0.0140456
-0.0140455
-0.0140454
-0.0140453
-0.0140452
-0.0140451
-0.0140451
-0.014045
-0.0140449
-0.0140448
-0.0140448
-0.0140447
-0.0140446
-0.0140446
-0.0140445
-0.0140444
-0.0140444
-0.0140443
-0.0140443
-0.0140442
-0.0140442
-0.0140441
-0.0140441
-0.0140441
-0.014044
-0.014044
-0.014044
-0.014044
-0.014044
-0.0140439
-0.0140439
-0.0140439
-0.0140439
-0.0140439
-0.0140439
-0.0140439
-0.014044
-0.014044
-0.014044
-0.0140441
-0.0140441
-0.0140441
-0.0140442
-0.0140443
-0.0140443
-0.0140444
-0.0140445
-0.0140446
-0.0140447
-0.0140448
-0.0140449
-0.014045
-0.0140451
-0.0140453
-0.0140454
-0.0140456
-0.0140458
-0.014046
-0.0140462
-0.0140464
-0.0140467
-0.0140469
-0.0140472
-0.0140475
-0.0140479
-0.0140482
-0.0140486
-0.0140491
-0.0140496
-0.0140501
-0.0140507
-0.0140513
-0.014052
-0.0140527
-0.0140535
-0.0140544
-0.0140554
-0.0140566
-0.0140578
-0.0140591
-0.0140606
-0.0140623
-0.0140641
-0.0140662
-0.0140684
-0.0140709
-0.0140736
-0.0140766
-0.0140799
-0.0140834
-0.0140871
-0.0140911
-0.0140951
-0.0140992
-0.0141033
-0.0141071
-0.0141105
-0.0141134
-0.0141155
-0.0141167
-0.0141168
-0.014116
-0.0177701
-0.0177698
-0.0177696
-0.0177692
-0.0177684
-0.0177671
-0.0177654
-0.0177633
-0.017761
-0.0177585
-0.0177558
-0.0177531
-0.0177504
-0.0177478
-0.0177453
-0.0177428
-0.0177405
-0.0177384
-0.0177364
-0.0177345
-0.0177327
-0.0177311
-0.0177296
-0.0177282
-0.0177269
-0.0177257
-0.0177246
-0.0177235
-0.0177225
-0.0177216
-0.0177208
-0.01772
-0.0177192
-0.0177185
-0.0177178
-0.0177172
-0.0177166
-0.017716
-0.0177155
-0.0177149
-0.0177145
-0.017714
-0.0177136
-0.0177131
-0.0177127
-0.0177123
-0.017712
-0.0177116
-0.0177112
-0.0177109
-0.0177106
-0.0177103
-0.01771
-0.0177097
-0.0177094
-0.0177091
-0.0177088
-0.0177086
-0.0177083
-0.0177081
-0.0177079
-0.0177076
-0.0177074
-0.0177072
-0.017707
-0.0177068
-0.0177066
-0.0177064
-0.0177062
-0.017706
-0.0177058
-0.0177056
-0.0177055
-0.0177053
-0.0177051
-0.017705
-0.0177048
-0.0177047
-0.0177045
-0.0177044
-0.0177043
-0.0177041
-0.017704
-0.0177038
-0.0177037
-0.0177036
-0.0177035
-0.0177033
-0.0177032
-0.0177031
-0.017703
-0.0177029
-0.0177028
-0.0177026
-0.0177025
-0.0177024
-0.0177023
-0.0177022
-0.0177021
-0.017702
-0.0177019
-0.0177018
-0.0177017
-0.0177017
-0.0177016
-0.0177015
-0.0177014
-0.0177013
-0.0177013
-0.0177012
-0.0177011
-0.0177011
-0.017701
-0.017701
-0.0177009
-0.0177008
-0.0177008
-0.0177007
-0.0177007
-0.0177007
-0.0177006
-0.0177006
-0.0177006
-0.0177005
-0.0177005
-0.0177005
-0.0177005
-0.0177005
-0.0177005
-0.0177004
-0.0177004
-0.0177004
-0.0177005
-0.0177005
-0.0177005
-0.0177005
-0.0177005
-0.0177006
-0.0177006
-0.0177007
-0.0177007
-0.0177008
-0.0177008
-0.0177009
-0.017701
-0.0177011
-0.0177011
-0.0177013
-0.0177014
-0.0177015
-0.0177016
-0.0177017
-0.0177019
-0.017702
-0.0177022
-0.0177024
-0.0177026
-0.0177028
-0.0177031
-0.0177033
-0.0177036
-0.0177039
-0.0177042
-0.0177046
-0.017705
-0.0177054
-0.0177058
-0.0177063
-0.0177068
-0.0177074
-0.0177081
-0.0177087
-0.0177095
-0.0177103
-0.0177112
-0.0177122
-0.0177133
-0.0177144
-0.0177157
-0.0177171
-0.0177187
-0.0177203
-0.0177221
-0.0177241
-0.0177261
-0.0177284
-0.0177307
-0.0177331
-0.0177356
-0.0177382
-0.0177406
-0.017743
-0.0177451
-0.017747
-0.0177485
-0.0177496
-0.0177502
-0.0177504
-0.0177505
-0.0177507
-0.0216745
-0.0216735
-0.0216734
-0.0216738
-0.0216741
-0.0216743
-0.0216742
-0.0216737
-0.0216729
-0.0216718
-0.0216704
-0.0216689
-0.0216673
-0.0216656
-0.0216638
-0.0216621
-0.0216604
-0.0216587
-0.0216571
-0.0216556
-0.0216541
-0.0216527
-0.0216514
-0.0216502
-0.0216491
-0.021648
-0.0216469
-0.021646
-0.0216451
-0.0216442
-0.0216434
-0.0216427
-0.021642
-0.0216413
-0.0216406
-0.02164
-0.0216395
-0.0216389
-0.0216384
-0.0216379
-0.0216374
-0.021637
-0.0216365
-0.0216361
-0.0216357
-0.0216354
-0.021635
-0.0216346
-0.0216343
-0.021634
-0.0216336
-0.0216333
-0.021633
-0.0216328
-0.0216325
-0.0216322
-0.0216319
-0.0216317
-0.0216314
-0.0216312
-0.021631
-0.0216307
-0.0216305
-0.0216303
-0.0216301
-0.0216299
-0.0216297
-0.0216295
-0.0216293
-0.0216291
-0.0216289
-0.0216288
-0.0216286
-0.0216284
-0.0216283
-0.0216281
-0.021628
-0.0216278
-0.0216277
-0.0216275
-0.0216274
-0.0216272
-0.0216271
-0.021627
-0.0216269
-0.0216267
-0.0216266
-0.0216265
-0.0216263
-0.0216262
-0.0216261
-0.021626
-0.0216259
-0.0216258
-0.0216257
-0.0216255
-0.0216254
-0.0216253
-0.0216252
-0.0216252
-0.0216251
-0.021625
-0.0216249
-0.0216248
-0.0216247
-0.0216246
-0.0216246
-0.0216245
-0.0216244
-0.0216243
-0.0216243
-0.0216242
-0.0216241
-0.0216241
-0.021624
-0.021624
-0.0216239
-0.0216239
-0.0216238
-0.0216238
-0.0216238
-0.0216237
-0.0216237
-0.0216237
-0.0216236
-0.0216236
-0.0216236
-0.0216236
-0.0216236
-0.0216236
-0.0216236
-0.0216236
-0.0216236
-0.0216236
-0.0216236
-0.0216236
-0.0216237
-0.0216237
-0.0216237
-0.0216238
-0.0216238
-0.0216239
-0.0216239
-0.021624
-0.0216241
-0.0216242
-0.0216243
-0.0216243
-0.0216245
-0.0216246
-0.0216247
-0.0216248
-0.021625
-0.0216251
-0.0216253
-0.0216255
-0.0216256
-0.0216259
-0.0216261
-0.0216263
-0.0216266
-0.0216269
-0.0216272
-0.0216275
-0.0216279
-0.0216282
-0.0216287
-0.0216291
-0.0216296
-0.0216301
-0.0216307
-0.0216313
-0.021632
-0.0216327
-0.0216335
-0.0216343
-0.0216353
-0.0216362
-0.0216373
-0.0216384
-0.0216397
-0.021641
-0.0216423
-0.0216437
-0.0216452
-0.0216467
-0.0216482
-0.0216496
-0.021651
-0.0216522
-0.0216532
-0.021654
-0.0216545
-0.0216547
-0.0216546
-0.0216541
-0.0216535
-0.0216529
-0.021653
-0.021654
-0.0258034
-0.0258019
-0.0258018
-0.0258028
-0.0258041
-0.0258054
-0.0258065
-0.0258073
-0.0258078
-0.0258079
-0.0258077
-0.0258072
-0.0258065
-0.0258056
-0.0258046
-0.0258035
-0.0258023
-0.0258011
-0.0257999
-0.0257987
-0.0257975
-0.0257964
-0.0257953
-0.0257942
-0.0257932
-0.0257922
-0.0257913
-0.0257905
-0.0257896
-0.0257889
-0.0257881
-0.0257874
-0.0257867
-0.0257861
-0.0257855
-0.0257849
-0.0257844
-0.0257839
-0.0257834
-0.0257829
-0.0257824
-0.025782
-0.0257816
-0.0257812
-0.0257808
-0.0257804
-0.0257801
-0.0257797
-0.0257794
-0.0257791
-0.0257788
-0.0257785
-0.0257782
-0.0257779
-0.0257776
-0.0257774
-0.0257771
-0.0257768
-0.0257766
-0.0257764
-0.0257761
-0.0257759
-0.0257757
-0.0257755
-0.0257753
-0.0257751
-0.0257749
-0.0257747
-0.0257745
-0.0257743
-0.0257741
-0.025774
-0.0257738
-0.0257736
-0.0257735
-0.0257733
-0.0257731
-0.025773
-0.0257729
-0.0257727
-0.0257726
-0.0257724
-0.0257723
-0.0257722
-0.025772
-0.0257719
-0.0257718
-0.0257717
-0.0257715
-0.0257714
-0.0257713
-0.0257712
-0.0257711
-0.025771
-0.0257709
-0.0257707
-0.0257706
-0.0257705
-0.0257704
-0.0257704
-0.0257703
-0.0257702
-0.0257701
-0.02577
-0.0257699
-0.0257698
-0.0257698
-0.0257697
-0.0257696
-0.0257695
-0.0257695
-0.0257694
-0.0257694
-0.0257693
-0.0257692
-0.0257692
-0.0257691
-0.0257691
-0.025769
-0.025769
-0.025769
-0.0257689
-0.0257689
-0.0257689
-0.0257688
-0.0257688
-0.0257688
-0.0257688
-0.0257688
-0.0257688
-0.0257688
-0.0257688
-0.0257688
-0.0257688
-0.0257688
-0.0257688
-0.0257689
-0.0257689
-0.0257689
-0.025769
-0.025769
-0.0257691
-0.0257691
-0.0257692
-0.0257693
-0.0257693
-0.0257694
-0.0257695
-0.0257696
-0.0257697
-0.0257698
-0.0257699
-0.0257701
-0.0257702
-0.0257704
-0.0257706
-0.0257707
-0.0257709
-0.0257711
-0.0257714
-0.0257716
-0.0257719
-0.0257722
-0.0257725
-0.0257728
-0.0257731
-0.0257735
-0.0257739
-0.0257744
-0.0257748
-0.0257753
-0.0257759
-0.0257765
-0.0257771
-0.0257778
-0.0257785
-0.0257792
-0.02578
-0.0257809
-0.0257818
-0.0257827
-0.0257836
-0.0257846
-0.0257855
-0.0257864
-0.0257872
-0.0257879
-0.0257884
-0.0257888
-0.0257889
-0.0257887
-0.0257882
-0.0257874
-0.0257861
-0.0257846
-0.025783
-0.0257814
-0.0257802
-0.0257802
-0.0257818
-0.0301162
-0.0301144
-0.0301144
-0.0301158
-0.0301178
-0.0301199
-0.030122
-0.0301238
-0.0301253
-0.0301264
-0.0301271
-0.0301274
-0.0301275
-0.0301273
-0.0301269
-0.0301263
-0.0301256
-0.0301248
-0.030124
-0.0301231
-0.0301222
-0.0301213
-0.0301204
-0.0301195
-0.0301186
-0.0301178
-0.030117
-0.0301162
-0.0301155
-0.0301148
-0.0301141
-0.0301135
-0.0301129
-0.0301123
-0.0301117
-0.0301112
-0.0301106
-0.0301102
-0.0301097
-0.0301092
-0.0301088
-0.0301084
-0.030108
-0.0301076
-0.0301072
-0.0301069
-0.0301065
-0.0301062
-0.0301058
-0.0301055
-0.0301052
-0.0301049
-0.0301047
-0.0301044
-0.0301041
-0.0301038
-0.0301036
-0.0301033
-0.0301031
-0.0301029
-0.0301026
-0.0301024
-0.0301022
-0.030102
-0.0301018
-0.0301016
-0.0301014
-0.0301012
-0.030101
-0.0301008
-0.0301007
-0.0301005
-0.0301003
-0.0301002
-0.0301
-0.0300998
-0.0300997
-0.0300995
-0.0300994
-0.0300993
-0.0300991
-0.030099
-0.0300988
-0.0300987
-0.0300986
-0.0300985
-0.0300983
-0.0300982
-0.0300981
-0.030098
-0.0300978
-0.0300977
-0.0300976
-0.0300975
-0.0300974
-0.0300973
-0.0300972
-0.0300971
-0.030097
-0.0300969
-0.0300968
-0.0300967
-0.0300966
-0.0300965
-0.0300965
-0.0300964
-0.0300963
-0.0300962
-0.0300962
-0.0300961
-0.030096
-0.030096
-0.0300959
-0.0300958
-0.0300958
-0.0300957
-0.0300957
-0.0300956
-0.0300956
-0.0300955
-0.0300955
-0.0300955
-0.0300954
-0.0300954
-0.0300954
-0.0300954
-0.0300953
-0.0300953
-0.0300953
-0.0300953
-0.0300953
-0.0300953
-0.0300953
-0.0300953
-0.0300954
-0.0300954
-0.0300954
-0.0300954
-0.0300955
-0.0300955
-0.0300955
-0.0300956
-0.0300956
-0.0300957
-0.0300958
-0.0300958
-0.0300959
-0.030096
-0.0300961
-0.0300962
-0.0300963
-0.0300964
-0.0300965
-0.0300967
-0.0300968
-0.030097
-0.0300972
-0.0300973
-0.0300975
-0.0300977
-0.030098
-0.0300982
-0.0300985
-0.0300987
-0.030099
-0.0300994
-0.0300997
-0.0301001
-0.0301005
-0.0301009
-0.0301013
-0.0301018
-0.0301023
-0.0301028
-0.0301034
-0.0301039
-0.0301046
-0.0301052
-0.0301058
-0.0301064
-0.0301071
-0.0301077
-0.0301082
-0.0301087
-0.030109
-0.0301093
-0.0301093
-0.0301091
-0.0301086
-0.0301078
-0.0301066
-0.0301051
-0.0301031
-0.0301008
-0.0300983
-0.0300957
-0.0300934
-0.0300917
-0.0300916
-0.0300936
-0.0345768
-0.0345749
-0.0345749
-0.0345766
-0.0345791
-0.0345818
-0.0345845
-0.0345871
-0.0345893
-0.0345911
-0.0345925
-0.0345936
-0.0345942
-0.0345946
-0.0345947
-0.0345946
-0.0345943
-0.0345939
-0.0345934
-0.0345928
-0.0345921
-0.0345914
-0.0345907
-0.03459
-0.0345893
-0.0345886
-0.0345879
-0.0345872
-0.0345866
-0.0345859
-0.0345853
-0.0345847
-0.0345842
-0.0345836
-0.0345831
-0.0345826
-0.0345821
-0.0345816
-0.0345812
-0.0345808
-0.0345803
-0.0345799
-0.0345796
-0.0345792
-0.0345788
-0.0345785
-0.0345781
-0.0345778
-0.0345775
-0.0345772
-0.0345769
-0.0345766
-0.0345763
-0.0345761
-0.0345758
-0.0345755
-0.0345753
-0.0345751
-0.0345748
-0.0345746
-0.0345744
-0.0345742
-0.0345739
-0.0345737
-0.0345735
-0.0345733
-0.0345731
-0.0345729
-0.0345728
-0.0345726
-0.0345724
-0.0345722
-0.0345721
-0.0345719
-0.0345718
-0.0345716
-0.0345715
-0.0345713
-0.0345712
-0.034571
-0.0345709
-0.0345707
-0.0345706
-0.0345705
-0.0345703
-0.0345702
-0.0345701
-0.03457
-0.0345698
-0.0345697
-0.0345696
-0.0345695
-0.0345694
-0.0345693
-0.0345692
-0.034569
-0.0345689
-0.0345689
-0.0345688
-0.0345687
-0.0345686
-0.0345685
-0.0345684
-0.0345683
-0.0345682
-0.0345682
-0.0345681
-0.034568
-0.0345679
-0.0345679
-0.0345678
-0.0345677
-0.0345677
-0.0345676
-0.0345676
-0.0345675
-0.0345674
-0.0345674
-0.0345673
-0.0345673
-0.0345673
-0.0345672
-0.0345672
-0.0345672
-0.0345671
-0.0345671
-0.0345671
-0.0345671
-0.0345671
-0.0345671
-0.0345671
-0.0345671
-0.0345671
-0.0345671
-0.0345671
-0.0345671
-0.0345672
-0.0345672
-0.0345672
-0.0345673
-0.0345673
-0.0345673