/*--------------------------------*- C++ -*----------------------------------*\
| =========                 |                                                 |
| \\      /  F ield         | OpenFOAM: The Open Source CFD Toolbox           |
|  \\    /   O peration     | Version:  2412                                  |
|   \\  /    A nd           | Website:  www.openfoam.com                      |
|    \\/     M anipulation  |                                                 |
\*---------------------------------------------------------------------------*/
FoamFile
{
    version     2.0;
    format      ascii;
    arch        "LSB;label=32;scalar=64";
    class       volScalarField;
    location    "100";
    object      p_rgh;
}
// * * * * * * * * * * * * * * * * * * * * * * * * * * * * * * * * * * * * * //

dimensions      [0 2 -2 0 0 0 0];

internalField   nonuniform List<scalar> 
40000
(
0.000136602
0.000140363
0.000152427
0.000168659
0.000188029
0.000208716
0.000229264
0.000248646
0.000266259
0.000281848
0.000295385
0.000307008
0.000316904
0.000325309
0.000332433
0.000338473
0.000343624
0.000348042
0.000351851
0.000355149
0.000358032
0.000360559
0.000362795
0.000364794
0.000366591
0.000368209
0.000369672
0.000370996
0.000372211
0.000373329
0.000374361
0.000375313
0.000376194
0.000377015
0.000377774
0.000378502
0.000379172
0.000379815
0.000380403
0.000380963
0.000381496
0.000381991
0.000382475
0.000382943
0.000383376
0.000383789
0.000384194
0.000384583
0.000384952
0.000385308
0.000385649
0.000385973
0.000386286
0.000386596
0.000386899
0.000387191
0.000387471
0.000387742
0.000388
0.000388248
0.000388493
0.000388735
0.000388971
0.000389195
0.000389412
0.000389624
0.000389831
0.000390033
0.000390232
0.000390426
0.000390613
0.00039079
0.000390961
0.000391131
0.000391297
0.000391459
0.000391617
0.000391772
0.000391921
0.000392064
0.000392203
0.000392341
0.00039248
0.000392615
0.000392747
0.000392878
0.000393008
0.000393136
0.000393259
0.000393378
0.000393496
0.000393615
0.000393732
0.000393845
0.000393953
0.000394058
0.000394162
0.000394262
0.000394357
0.000394448
0.000394537
0.000394625
0.00039471
0.000394793
0.000394872
0.000394948
0.000395021
0.000395091
0.000395159
0.000395227
0.000395296
0.000395364
0.000395428
0.000395486
0.000395542
0.000395598
0.000395654
0.000395707
0.000395757
0.000395803
0.000395845
0.000395885
0.000395921
0.000395953
0.000395981
0.000396005
0.000396024
0.000396036
0.000396043
0.000396044
0.000396043
0.000396038
0.000396028
0.000396011
0.000395986
0.000395954
0.000395917
0.000395875
0.000395827
0.000395773
0.000395713
0.000395649
0.000395582
0.000395506
0.00039542
0.000395323
0.000395216
0.000395098
0.000394973
0.000394844
0.000394711
0.000394569
0.000394408
0.000394226
0.000394026
0.000393811
0.00039358
0.000393331
0.000393063
0.000392774
0.000392462
0.000392123
0.000391751
0.000391343
0.000390898
0.000390409
0.000389872
0.000389278
0.000388626
0.000387907
0.000387112
0.000386231
0.000385248
0.000384145
0.000382907
0.000381513
0.000379934
0.00037814
0.000376086
0.000373721
0.000370988
0.000367807
0.000364085
0.000359707
0.000354533
0.000348398
0.000341105
0.000332437
0.000322161
0.000310051
0.000295927
0.000279695
0.000261444
0.000241531
0.000220713
0.000200246
0.000181964
0.000168089
0.000161182
0.000162478
0.000683101
0.000689528
0.000702329
0.000719494
0.000739097
0.000759654
0.000779938
0.00079913
0.000816693
0.000832395
0.000846163
0.00085809
0.000868311
0.000877043
0.000884487
0.000890817
0.00089622
0.000900847
0.000904826
0.000908271
0.000911272
0.0009139
0.000916218
0.00091827
0.000920106
0.000921764
0.00092326
0.000924617
0.000925854
0.000926984
0.000928025
0.000928989
0.000929885
0.000930713
0.00093149
0.000932214
0.000932894
0.000933537
0.000934138
0.000934708
0.000935245
0.000935748
0.00093623
0.000936692
0.000937129
0.000937548
0.000937946
0.000938328
0.000938702
0.000939067
0.000939414
0.000939745
0.000940064
0.000940369
0.000940661
0.000940946
0.000941228
0.000941504
0.000941768
0.000942023
0.000942269
0.000942506
0.000942734
0.000942959
0.000943181
0.000943396
0.000943602
0.000943803
0.000944002
0.000944195
0.000944381
0.000944559
0.000944733
0.000944903
0.000945067
0.000945227
0.000945387
0.000945543
0.000945691
0.000945833
0.000945972
0.000946111
0.000946249
0.000946384
0.000946516
0.000946648
0.000946779
0.000946905
0.000947026
0.000947145
0.000947265
0.000947385
0.000947502
0.000947613
0.000947721
0.000947828
0.000947932
0.000948031
0.000948125
0.000948217
0.000948307
0.000948395
0.000948481
0.000948564
0.000948643
0.00094872
0.000948792
0.000948861
0.000948929
0.000948999
0.000949069
0.000949136
0.000949198
0.000949257
0.000949313
0.00094937
0.000949425
0.000949477
0.000949526
0.000949572
0.000949615
0.000949655
0.00094969
0.000949721
0.000949749
0.000949772
0.00094979
0.000949803
0.00094981
0.000949812
0.00094981
0.000949805
0.000949794
0.000949776
0.00094975
0.000949718
0.000949681
0.00094964
0.000949594
0.000949542
0.000949481
0.000949414
0.000949341
0.000949262
0.000949175
0.00094908
0.000948978
0.000948869
0.000948746
0.000948609
0.000948461
0.000948307
0.000948146
0.000947971
0.000947776
0.000947562
0.000947329
0.000947077
0.000946805
0.000946512
0.000946193
0.000945846
0.000945466
0.000945049
0.000944592
0.000944094
0.00094355
0.000942949
0.000942284
0.00094155
0.000940737
0.000939835
0.00093883
0.000937698
0.00093642
0.000934977
0.000933336
0.000931469
0.000929327
0.000926852
0.000923983
0.000920635
0.000916709
0.000912089
0.000906628
0.000900161
0.000892501
0.000883447
0.000872793
0.000860348
0.000845974
0.000829623
0.000811409
0.000791676
0.000771083
0.000750665
0.000731891
0.000716504
0.000706967
0.000704575
0.00172933
0.00174252
0.00176015
0.00178125
0.00180373
0.00182636
0.00184815
0.00186847
0.00188691
0.0019033
0.00191766
0.00193007
0.00194071
0.00194977
0.00195746
0.00196401
0.00196957
0.00197433
0.00197841
0.00198192
0.00198497
0.00198764
0.00198998
0.00199206
0.00199392
0.00199558
0.00199709
0.00199846
0.00199971
0.00200084
0.00200189
0.00200285
0.00200375
0.00200458
0.00200537
0.00200609
0.00200677
0.00200741
0.00200801
0.00200858
0.00200912
0.00200963
0.00201011
0.00201057
0.00201101
0.00201144
0.00201184
0.00201222
0.00201259
0.00201294
0.00201329
0.00201362
0.00201395
0.00201426
0.00201455
0.00201484
0.00201511
0.00201538
0.00201565
0.0020159
0.00201616
0.00201639
0.00201662
0.00201684
0.00201706
0.00201728
0.00201748
0.00201769
0.00201789
0.00201808
0.00201826
0.00201844
0.00201861
0.00201878
0.00201895
0.00201911
0.00201927
0.00201942
0.00201957
0.00201971
0.00201985
0.00201999
0.00202013
0.00202026
0.00202039
0.00202053
0.00202066
0.00202078
0.0020209
0.00202102
0.00202114
0.00202126
0.00202138
0.00202149
0.0020216
0.00202171
0.00202181
0.00202191
0.002022
0.0020221
0.00202219
0.00202228
0.00202236
0.00202245
0.00202253
0.0020226
0.00202267
0.00202274
0.00202281
0.00202288
0.00202295
0.00202302
0.00202308
0.00202314
0.0020232
0.00202325
0.00202331
0.00202336
0.00202341
0.00202345
0.00202349
0.00202353
0.00202357
0.0020236
0.00202363
0.00202365
0.00202366
0.00202368
0.00202368
0.00202369
0.00202369
0.00202368
0.00202367
0.00202365
0.00202363
0.00202359
0.00202356
0.00202352
0.00202347
0.00202342
0.00202336
0.0020233
0.00202323
0.00202315
0.00202305
0.00202295
0.00202285
0.00202274
0.00202262
0.0020225
0.00202235
0.00202219
0.00202202
0.00202184
0.00202164
0.00202143
0.00202119
0.00202094
0.00202067
0.00202038
0.00202006
0.00201971
0.00201933
0.00201891
0.00201845
0.00201795
0.0020174
0.00201679
0.00201612
0.00201538
0.00201456
0.00201365
0.00201263
0.00201149
0.0020102
0.00200874
0.00200708
0.00200518
0.002003
0.00200047
0.00199754
0.0019941
0.00199006
0.00198528
0.00197962
0.0019729
0.00196492
0.00195547
0.00194434
0.00193132
0.00191625
0.00189906
0.0018798
0.00185873
0.00183634
0.00181342
0.0017911
0.00177073
0.00175459
0.00174382
0.00321286
0.00323777
0.00326397
0.00329179
0.00331942
0.00334593
0.00337061
0.00339307
0.00341308
0.00343063
0.00344582
0.00345882
0.00346987
0.00347922
0.00348711
0.00349377
0.0034994
0.00350419
0.00350828
0.00351178
0.00351482
0.00351748
0.00351981
0.00352188
0.00352372
0.00352537
0.00352686
0.00352821
0.00352945
0.00353058
0.00353162
0.00353259
0.00353347
0.00353431
0.00353509
0.0035358
0.00353649
0.00353712
0.00353771
0.00353829
0.00353883
0.00353933
0.00353981
0.00354027
0.00354071
0.00354113
0.00354153
0.00354192
0.00354229
0.00354264
0.00354298
0.00354331
0.00354363
0.00354394
0.00354424
0.00354453
0.0035448
0.00354507
0.00354533
0.00354559
0.00354583
0.00354607
0.0035463
0.00354653
0.00354674
0.00354695
0.00354716
0.00354737
0.00354757
0.00354776
0.00354794
0.00354812
0.00354829
0.00354846
0.00354862
0.00354879
0.00354895
0.0035491
0.00354924
0.00354938
0.00354952
0.00354966
0.0035498
0.00354993
0.00355007
0.0035502
0.00355033
0.00355045
0.00355057
0.00355069
0.00355081
0.00355093
0.00355105
0.00355116
0.00355127
0.00355138
0.00355148
0.00355158
0.00355167
0.00355177
0.00355186
0.00355195
0.00355204
0.00355212
0.0035522
0.00355228
0.00355235
0.00355242
0.00355249
0.00355256
0.00355263
0.0035527
0.00355276
0.00355282
0.00355287
0.00355293
0.00355298
0.00355303
0.00355308
0.00355312
0.00355317
0.0035532
0.00355324
0.00355327
0.0035533
0.00355332
0.00355333
0.00355334
0.00355335
0.00355335
0.00355336
0.00355335
0.00355334
0.00355332
0.0035533
0.00355327
0.00355323
0.00355319
0.00355314
0.00355309
0.00355304
0.00355297
0.00355291
0.00355283
0.00355274
0.00355264
0.00355253
0.00355241
0.00355229
0.00355217
0.00355203
0.00355188
0.00355171
0.00355153
0.00355133
0.00355111
0.00355088
0.00355063
0.00355036
0.00355006
0.00354974
0.0035494
0.00354902
0.0035486
0.00354815
0.00354765
0.0035471
0.00354649
0.00354583
0.0035451
0.00354428
0.00354338
0.00354236
0.00354123
0.00353995
0.0035385
0.00353685
0.00353497
0.0035328
0.00353028
0.00352734
0.0035239
0.00351983
0.003515
0.00350924
0.00350236
0.00349413
0.00348431
0.00347266
0.0034589
0.00344283
0.00342426
0.00340314
0.00337954
0.00335375
0.00332629
0.00329796
0.00326977
0.00324366
0.00322051
0.00505438
0.00509364
0.00513065
0.00516682
0.00520088
0.00523227
0.0052606
0.00528573
0.00530767
0.00532658
0.0053427
0.00535631
0.00536775
0.00537732
0.00538532
0.00539201
0.00539762
0.00540236
0.00540638
0.00540982
0.0054128
0.00541538
0.00541766
0.00541967
0.00542147
0.00542309
0.00542454
0.00542587
0.00542708
0.00542819
0.00542922
0.00543016
0.00543104
0.00543186
0.00543262
0.00543334
0.00543401
0.00543464
0.00543523
0.00543579
0.00543633
0.00543684
0.00543731
0.00543777
0.0054382
0.00543861
0.00543901
0.0054394
0.00543977
0.00544012
0.00544047
0.00544079
0.00544111
0.00544141
0.00544171
0.005442
0.00544227
0.00544254
0.0054428
0.00544306
0.0054433
0.00544353
0.00544377
0.00544399
0.00544421
0.00544442
0.00544463
0.00544483
0.00544503
0.00544521
0.0054454
0.00544558
0.00544575
0.00544592
0.00544608
0.00544625
0.0054464
0.00544655
0.00544669
0.00544684
0.00544698
0.00544711
0.00544725
0.00544738
0.00544752
0.00544765
0.00544777
0.00544789
0.00544802
0.00544814
0.00544826
0.00544838
0.00544849
0.00544861
0.00544872
0.00544883
0.00544893
0.00544903
0.00544913
0.00544922
0.00544931
0.0054494
0.00544949
0.00544958
0.00544966
0.00544973
0.00544981
0.00544988
0.00544995
0.00545002
0.00545009
0.00545016
0.00545022
0.00545027
0.00545033
0.00545039
0.00545044
0.00545049
0.00545053
0.00545058
0.00545062
0.00545065
0.00545069
0.00545072
0.00545074
0.00545077
0.00545078
0.00545079
0.0054508
0.0054508
0.00545081
0.0054508
0.00545079
0.00545077
0.00545075
0.00545072
0.00545069
0.00545065
0.0054506
0.00545055
0.0054505
0.00545043
0.00545036
0.00545028
0.0054502
0.0054501
0.00545
0.00544989
0.00544976
0.00544963
0.0054495
0.00544934
0.00544918
0.005449
0.0054488
0.00544859
0.00544836
0.00544811
0.00544784
0.00544755
0.00544724
0.00544689
0.00544652
0.00544611
0.00544566
0.00544517
0.00544463
0.00544403
0.00544338
0.00544266
0.00544186
0.00544098
0.00543999
0.00543888
0.00543763
0.00543623
0.00543463
0.00543279
0.00543068
0.00542822
0.00542535
0.00542197
0.00541795
0.00541315
0.00540738
0.00540043
0.00539203
0.00538191
0.00536975
0.00535522
0.00533799
0.00531777
0.00529434
0.00526757
0.0052375
0.00520436
0.00516859
0.00513082
0.00509251
0.0050542
0.00715884
0.00721316
0.00726163
0.00730664
0.00734749
0.00738401
0.00741613
0.00744402
0.0074679
0.00748813
0.00750512
0.00751925
0.00753096
0.00754064
0.00754863
0.00755525
0.00756075
0.00756535
0.00756923
0.00757254
0.00757539
0.00757787
0.00758005
0.00758198
0.0075837
0.00758525
0.00758666
0.00758794
0.00758911
0.00759019
0.00759119
0.00759212
0.00759297
0.00759377
0.00759452
0.00759522
0.00759588
0.00759651
0.00759709
0.00759764
0.00759817
0.00759866
0.00759914
0.00759959
0.00760002
0.00760043
0.00760083
0.00760121
0.00760157
0.00760192
0.00760226
0.00760259
0.0076029
0.0076032
0.0076035
0.00760378
0.00760405
0.00760432
0.00760458
0.00760483
0.00760507
0.00760531
0.00760554
0.00760576
0.00760598
0.00760619
0.0076064
0.0076066
0.00760679
0.00760698
0.00760717
0.00760734
0.00760751
0.00760768
0.00760785
0.00760801
0.00760816
0.00760831
0.00760846
0.0076086
0.00760874
0.00760887
0.00760901
0.00760914
0.00760928
0.0076094
0.00760953
0.00760965
0.00760977
0.0076099
0.00761002
0.00761013
0.00761025
0.00761036
0.00761047
0.00761058
0.00761069
0.00761079
0.00761088
0.00761098
0.00761107
0.00761116
0.00761125
0.00761134
0.00761142
0.0076115
0.00761157
0.00761164
0.00761172
0.00761179
0.00761186
0.00761192
0.00761198
0.00761204
0.0076121
0.00761215
0.0076122
0.00761225
0.0076123
0.00761234
0.00761238
0.00761241
0.00761244
0.00761247
0.0076125
0.00761252
0.00761253
0.00761255
0.00761255
0.00761256
0.00761256
0.00761256
0.00761255
0.00761253
0.00761251
0.00761248
0.00761245
0.00761241
0.00761237
0.00761232
0.00761227
0.00761221
0.00761214
0.00761206
0.00761197
0.00761187
0.00761178
0.00761167
0.00761155
0.00761142
0.00761128
0.00761113
0.00761097
0.00761079
0.0076106
0.00761039
0.00761016
0.00760992
0.00760965
0.00760937
0.00760906
0.00760873
0.00760836
0.00760795
0.00760752
0.00760704
0.00760651
0.00760594
0.0076053
0.00760461
0.00760384
0.00760299
0.00760204
0.00760098
0.00759978
0.00759844
0.00759691
0.00759516
0.00759315
0.00759081
0.00758807
0.00758481
0.00758093
0.00757625
0.00757058
0.00756366
0.00755522
0.00754491
0.00753235
0.00751712
0.0074988
0.00747693
0.00745113
0.00742106
0.00738649
0.00734734
0.0073037
0.00725582
0.00720456
0.00715014
0.00942462
0.00949298
0.00955215
0.00960533
0.00965242
0.00969359
0.00972911
0.0097594
0.00978492
0.0098062
0.00982379
0.00983824
0.00985005
0.00985967
0.00986752
0.00987395
0.00987923
0.00988362
0.0098873
0.00989041
0.00989309
0.00989542
0.00989747
0.00989929
0.00990091
0.00990238
0.00990371
0.00990494
0.00990606
0.0099071
0.00990806
0.00990895
0.00990978
0.00991056
0.00991129
0.00991196
0.00991261
0.00991322
0.00991379
0.00991434
0.00991486
0.00991534
0.0099158
0.00991625
0.00991667
0.00991708
0.00991747
0.00991785
0.00991821
0.00991855
0.00991889
0.00991921
0.00991952
0.00991982
0.00992011
0.00992039
0.00992066
0.00992093
0.00992119
0.00992143
0.00992167
0.00992191
0.00992214
0.00992236
0.00992257
0.00992279
0.00992299
0.00992319
0.00992338
0.00992357
0.00992375
0.00992393
0.0099241
0.00992427
0.00992444
0.00992459
0.00992475
0.00992489
0.00992504
0.00992518
0.00992532
0.00992546
0.00992559
0.00992573
0.00992586
0.00992598
0.00992611
0.00992623
0.00992636
0.00992648
0.0099266
0.00992671
0.00992683
0.00992694
0.00992705
0.00992716
0.00992726
0.00992737
0.00992746
0.00992756
0.00992765
0.00992775
0.00992784
0.00992792
0.009928
0.00992808
0.00992815
0.00992823
0.00992831
0.00992838
0.00992844
0.0099285
0.00992857
0.00992862
0.00992868
0.00992873
0.00992878
0.00992883
0.00992888
0.00992892
0.00992896
0.00992899
0.00992902
0.00992905
0.00992908
0.0099291
0.00992911
0.00992912
0.00992913
0.00992914
0.00992914
0.00992914
0.00992913
0.00992911
0.00992909
0.00992907
0.00992903
0.009929
0.00992895
0.00992891
0.00992886
0.0099288
0.00992873
0.00992866
0.00992857
0.00992848
0.00992838
0.00992827
0.00992816
0.00992803
0.0099279
0.00992775
0.00992759
0.00992742
0.00992723
0.00992702
0.0099268
0.00992656
0.00992631
0.00992603
0.00992573
0.0099254
0.00992505
0.00992466
0.00992424
0.00992378
0.00992327
0.00992272
0.00992211
0.00992145
0.00992072
0.00991991
0.00991901
0.00991801
0.00991689
0.00991563
0.00991421
0.00991258
0.00991071
0.00990853
0.00990596
0.0099029
0.00989923
0.00989476
0.00988929
0.00988254
0.00987419
0.00986386
0.00985111
0.00983542
0.00981625
0.00979302
0.00976517
0.00973215
0.00969349
0.0096488
0.00959785
0.0095405
0.00947702
0.00940732
0.0117517
0.0118316
0.0118996
0.0119593
0.0120114
0.0120561
0.0120942
0.0121262
0.0121527
0.0121746
0.0121924
0.0122069
0.0122186
0.0122279
0.0122355
0.0122416
0.0122466
0.0122507
0.0122541
0.012257
0.0122594
0.0122616
0.0122635
0.0122652
0.0122667
0.012268
0.0122693
0.0122704
0.0122715
0.0122725
0.0122734
0.0122742
0.012275
0.0122758
0.0122765
0.0122771
0.0122778
0.0122784
0.0122789
0.0122795
0.01228
0.0122804
0.0122809
0.0122813
0.0122817
0.0122821
0.0122825
0.0122829
0.0122832
0.0122836
0.0122839
0.0122842
0.0122845
0.0122848
0.0122851
0.0122854
0.0122857
0.0122859
0.0122862
0.0122864
0.0122867
0.0122869
0.0122871
0.0122873
0.0122876
0.0122878
0.012288
0.0122882
0.0122884
0.0122886
0.0122887
0.0122889
0.0122891
0.0122893
0.0122894
0.0122896
0.0122897
0.0122899
0.01229
0.0122902
0.0122903
0.0122904
0.0122906
0.0122907
0.0122908
0.012291
0.0122911
0.0122912
0.0122913
0.0122915
0.0122916
0.0122917
0.0122918
0.0122919
0.012292
0.0122921
0.0122922
0.0122923
0.0122924
0.0122925
0.0122926
0.0122927
0.0122928
0.0122929
0.012293
0.0122931
0.0122931
0.0122932
0.0122933
0.0122934
0.0122934
0.0122935
0.0122935
0.0122936
0.0122937
0.0122937
0.0122938
0.0122938
0.0122939
0.0122939
0.0122939
0.012294
0.012294
0.012294
0.0122941
0.0122941
0.0122941
0.0122941
0.0122941
0.0122941
0.0122941
0.0122941
0.0122941
0.0122941
0.0122941
0.012294
0.012294
0.012294
0.0122939
0.0122939
0.0122938
0.0122938
0.0122937
0.0122936
0.0122936
0.0122935
0.0122934
0.0122933
0.0122932
0.012293
0.0122929
0.0122928
0.0122926
0.0122924
0.0122923
0.0122921
0.0122919
0.0122916
0.0122914
0.0122911
0.0122908
0.0122905
0.0122902
0.0122898
0.0122894
0.012289
0.0122885
0.0122879
0.0122874
0.0122868
0.0122861
0.0122853
0.0122845
0.0122836
0.0122825
0.0122814
0.0122801
0.0122786
0.0122769
0.0122749
0.0122726
0.0122697
0.0122664
0.0122622
0.012257
0.0122506
0.0122425
0.0122324
0.0122197
0.0122038
0.0121842
0.0121602
0.0121309
0.0120957
0.0120539
0.0120048
0.0119479
0.0118827
0.011809
0.0117264
0.0140486
0.0141367
0.0142108
0.0142749
0.0143301
0.014377
0.0144164
0.0144491
0.014476
0.0144979
0.0145155
0.0145296
0.0145409
0.0145498
0.0145569
0.0145626
0.0145672
0.0145709
0.014574
0.0145766
0.0145788
0.0145807
0.0145824
0.014584
0.0145853
0.0145866
0.0145877
0.0145888
0.0145898
0.0145907
0.0145916
0.0145924
0.0145932
0.0145939
0.0145945
0.0145952
0.0145958
0.0145964
0.0145969
0.0145974
0.0145979
0.0145984
0.0145988
0.0145992
0.0145996
0.0146
0.0146004
0.0146008
0.0146011
0.0146014
0.0146018
0.0146021
0.0146024
0.0146027
0.014603
0.0146032
0.0146035
0.0146038
0.014604
0.0146043
0.0146045
0.0146047
0.0146049
0.0146052
0.0146054
0.0146056
0.0146058
0.014606
0.0146062
0.0146064
0.0146065
0.0146067
0.0146069
0.0146071
0.0146072
0.0146074
0.0146075
0.0146077
0.0146078
0.014608
0.0146081
0.0146082
0.0146084
0.0146085
0.0146086
0.0146088
0.0146089
0.014609
0.0146091
0.0146093
0.0146094
0.0146095
0.0146096
0.0146097
0.0146098
0.0146099
0.01461
0.0146101
0.0146102
0.0146103
0.0146104
0.0146105
0.0146106
0.0146107
0.0146108
0.0146108
0.0146109
0.014611
0.0146111
0.0146111
0.0146112
0.0146113
0.0146113
0.0146114
0.0146115
0.0146115
0.0146116
0.0146116
0.0146116
0.0146117
0.0146117
0.0146118
0.0146118
0.0146118
0.0146118
0.0146119
0.0146119
0.0146119
0.0146119
0.0146119
0.0146119
0.0146119
0.0146119
0.0146119
0.0146119
0.0146118
0.0146118
0.0146118
0.0146117
0.0146117
0.0146117
0.0146116
0.0146115
0.0146115
0.0146114
0.0146113
0.0146112
0.0146111
0.014611
0.0146109
0.0146108
0.0146106
0.0146105
0.0146103
0.0146101
0.0146099
0.0146097
0.0146095
0.0146093
0.014609
0.0146087
0.0146084
0.0146081
0.0146078
0.0146074
0.014607
0.0146065
0.014606
0.0146055
0.0146049
0.0146043
0.0146036
0.0146028
0.014602
0.0146011
0.0146
0.0145989
0.0145976
0.0145961
0.0145943
0.0145922
0.0145897
0.0145867
0.0145829
0.0145781
0.0145721
0.0145645
0.0145548
0.0145425
0.0145269
0.0145074
0.0144831
0.0144532
0.0144169
0.0143732
0.0143214
0.0142605
0.0141899
0.0141088
0.0140167
0.0162382
0.0163307
0.0164077
0.0164738
0.01653
0.0165774
0.0166168
0.0166492
0.0166756
0.0166969
0.0167138
0.0167272
0.0167378
0.0167461
0.0167526
0.0167577
0.0167619
0.0167652
0.0167679
0.0167702
0.0167721
0.0167738
0.0167753
0.0167767
0.0167779
0.0167791
0.0167801
0.0167811
0.016782
0.0167829
0.0167837
0.0167844
0.0167851
0.0167858
0.0167865
0.0167871
0.0167876
0.0167882
0.0167887
0.0167892
0.0167897
0.0167901
0.0167905
0.016791
0.0167914
0.0167917
0.0167921
0.0167925
0.0167928
0.0167931
0.0167934
0.0167938
0.0167941
0.0167943
0.0167946
0.0167949
0.0167952
0.0167954
0.0167957
0.0167959
0.0167961
0.0167963
0.0167966
0.0167968
0.016797
0.0167972
0.0167974
0.0167976
0.0167978
0.016798
0.0167982
0.0167983
0.0167985
0.0167987
0.0167988
0.016799
0.0167991
0.0167993
0.0167994
0.0167996
0.0167997
0.0167998
0.0168
0.0168001
0.0168002
0.0168004
0.0168005
0.0168006
0.0168007
0.0168009
0.016801
0.0168011
0.0168012
0.0168013
0.0168014
0.0168015
0.0168016
0.0168017
0.0168018
0.0168019
0.016802
0.0168021
0.0168022
0.0168023
0.0168024
0.0168025
0.0168025
0.0168026
0.0168027
0.0168028
0.0168028
0.0168029
0.0168029
0.016803
0.0168031
0.0168031
0.0168032
0.0168032
0.0168033
0.0168033
0.0168033
0.0168034
0.0168034
0.0168034
0.0168035
0.0168035
0.0168035
0.0168035
0.0168035
0.0168035
0.0168035
0.0168035
0.0168035
0.0168035
0.0168035
0.0168035
0.0168034
0.0168034
0.0168034
0.0168033
0.0168033
0.0168032
0.0168032
0.0168031
0.016803
0.0168029
0.0168028
0.0168027
0.0168026
0.0168025
0.0168024
0.0168023
0.0168021
0.016802
0.0168018
0.0168016
0.0168014
0.0168012
0.016801
0.0168008
0.0168005
0.0168002
0.0167999
0.0167996
0.0167992
0.0167989
0.0167984
0.016798
0.0167975
0.016797
0.0167964
0.0167958
0.0167951
0.0167943
0.0167935
0.0167926
0.0167916
0.0167905
0.0167892
0.0167877
0.0167859
0.0167837
0.016781
0.0167777
0.0167734
0.016768
0.016761
0.0167519
0.0167403
0.0167254
0.0167065
0.0166828
0.0166532
0.016617
0.0165729
0.0165201
0.0164575
0.0163843
0.0162992
0.0162015
0.018261
0.0183539
0.0184309
0.0184963
0.0185516
0.0185978
0.0186359
0.0186671
0.0186922
0.0187122
0.018728
0.0187404
0.01875
0.0187575
0.0187633
0.0187679
0.0187714
0.0187743
0.0187766
0.0187786
0.0187803
0.0187817
0.018783
0.0187842
0.0187853
0.0187863
0.0187872
0.0187881
0.018789
0.0187897
0.0187905
0.0187912
0.0187919
0.0187925
0.0187931
0.0187937
0.0187942
0.0187947
0.0187952
0.0187957
0.0187962
0.0187966
0.018797
0.0187974
0.0187978
0.0187982
0.0187985
0.0187989
0.0187992
0.0187995
0.0187998
0.0188001
0.0188004
0.0188007
0.018801
0.0188012
0.0188015
0.0188018
0.018802
0.0188022
0.0188025
0.0188027
0.0188029
0.0188031
0.0188033
0.0188035
0.0188037
0.0188039
0.0188041
0.0188043
0.0188045
0.0188047
0.0188048
0.018805
0.0188051
0.0188053
0.0188055
0.0188056
0.0188057
0.0188059
0.018806
0.0188062
0.0188063
0.0188064
0.0188066
0.0188067
0.0188068
0.0188069
0.0188071
0.0188072
0.0188073
0.0188074
0.0188075
0.0188076
0.0188077
0.0188079
0.018808
0.0188081
0.0188082
0.0188082
0.0188083
0.0188084
0.0188085
0.0188086
0.0188087
0.0188088
0.0188088
0.0188089
0.018809
0.0188091
0.0188091
0.0188092
0.0188093
0.0188093
0.0188094
0.0188094
0.0188095
0.0188095
0.0188096
0.0188096
0.0188096
0.0188097
0.0188097
0.0188097
0.0188098
0.0188098
0.0188098
0.0188098
0.0188098
0.0188098
0.0188098
0.0188098
0.0188098
0.0188098
0.0188098
0.0188098
0.0188097
0.0188097
0.0188097
0.0188096
0.0188096
0.0188095
0.0188095
0.0188094
0.0188093
0.0188093
0.0188092
0.0188091
0.018809
0.0188089
0.0188088
0.0188087
0.0188085
0.0188084
0.0188082
0.018808
0.0188079
0.0188077
0.0188075
0.0188072
0.018807
0.0188067
0.0188064
0.0188061
0.0188058
0.0188055
0.0188051
0.0188047
0.0188042
0.0188038
0.0188032
0.0188027
0.0188021
0.0188015
0.0188007
0.0188
0.0187991
0.0187982
0.0187971
0.0187958
0.0187943
0.0187925
0.0187903
0.0187874
0.0187837
0.018779
0.0187727
0.0187645
0.0187538
0.01874
0.0187223
0.0186997
0.0186714
0.0186364
0.0185935
0.0185416
0.0184796
0.0184064
0.0183208
0.0182217
0.0200764
0.0201662
0.0202403
0.0203029
0.0203554
0.020399
0.0204347
0.0204636
0.0204868
0.0205051
0.0205194
0.0205305
0.020539
0.0205456
0.0205506
0.0205545
0.0205575
0.0205599
0.0205618
0.0205634
0.0205648
0.020566
0.0205671
0.0205682
0.0205691
0.02057
0.0205708
0.0205716
0.0205723
0.020573
0.0205737
0.0205744
0.020575
0.0205756
0.0205761
0.0205767
0.0205772
0.0205777
0.0205782
0.0205786
0.0205791
0.0205795
0.0205799
0.0205803
0.0205806
0.020581
0.0205813
0.0205817
0.020582
0.0205823
0.0205826
0.0205829
0.0205832
0.0205835
0.0205837
0.020584
0.0205843
0.0205845
0.0205847
0.020585
0.0205852
0.0205854
0.0205856
0.0205858
0.0205861
0.0205863
0.0205865
0.0205866
0.0205868
0.020587
0.0205872
0.0205874
0.0205875
0.0205877
0.0205878
0.020588
0.0205882
0.0205883
0.0205884
0.0205886
0.0205887
0.0205889
0.020589
0.0205891
0.0205893
0.0205894
0.0205895
0.0205896
0.0205898
0.0205899
0.02059
0.0205901
0.0205902
0.0205903
0.0205905
0.0205906
0.0205907
0.0205908
0.0205909
0.0205909
0.020591
0.0205911
0.0205912
0.0205913
0.0205914
0.0205915
0.0205915
0.0205916
0.0205917
0.0205918
0.0205918
0.0205919
0.0205919
0.020592
0.0205921
0.0205921
0.0205922
0.0205922
0.0205923
0.0205923
0.0205923
0.0205924
0.0205924
0.0205924
0.0205925
0.0205925
0.0205925
0.0205925
0.0205925
0.0205925
0.0205925
0.0205925
0.0205925
0.0205925
0.0205925
0.0205925
0.0205924
0.0205924
0.0205924
0.0205923
0.0205923
0.0205922
0.0205922
0.0205921
0.0205921
0.020592
0.0205919
0.0205918
0.0205917
0.0205916
0.0205915
0.0205914
0.0205913
0.0205912
0.020591
0.0205909
0.0205907
0.0205905
0.0205903
0.0205901
0.0205899
0.0205896
0.0205894
0.0205891
0.0205888
0.0205885
0.0205881
0.0205878
0.0205874
0.020587
0.0205865
0.020586
0.0205855
0.020585
0.0205844
0.0205838
0.0205831
0.0205823
0.0205814
0.0205804
0.0205793
0.0205778
0.020576
0.0205737
0.0205706
0.0205665
0.0205611
0.0205539
0.0205445
0.020532
0.0205158
0.0204951
0.0204689
0.0204361
0.0203956
0.0203463
0.020287
0.0202165
0.0201334
0.0200368
0.0216621
0.021746
0.0218149
0.0218728
0.0219211
0.0219609
0.0219934
0.0220195
0.0220402
0.0220564
0.022069
0.0220786
0.0220859
0.0220915
0.0220956
0.0220988
0.0221013
0.0221032
0.0221047
0.022106
0.0221071
0.0221081
0.022109
0.0221098
0.0221106
0.0221114
0.0221121
0.0221128
0.0221134
0.0221141
0.0221147
0.0221153
0.0221159
0.0221164
0.0221169
0.0221174
0.0221179
0.0221184
0.0221188
0.0221193
0.0221197
0.0221201
0.0221205
0.0221208
0.0221212
0.0221215
0.0221219
0.0221222
0.0221225
0.0221228
0.0221231
0.0221234
0.0221237
0.022124
0.0221242
0.0221245
0.0221247
0.022125
0.0221252
0.0221254
0.0221256
0.0221259
0.0221261
0.0221263
0.0221265
0.0221267
0.0221269
0.0221271
0.0221273
0.0221274
0.0221276
0.0221278
0.0221279
0.0221281
0.0221283
0.0221284
0.0221286
0.0221287
0.0221289
0.022129
0.0221291
0.0221293
0.0221294
0.0221295
0.0221297
0.0221298
0.0221299
0.0221301
0.0221302
0.0221303
0.0221304
0.0221305
0.0221306
0.0221308
0.0221309
0.022131
0.0221311
0.0221312
0.0221313
0.0221314
0.0221315
0.0221315
0.0221316
0.0221317
0.0221318
0.0221319
0.0221319
0.022132
0.0221321
0.0221322
0.0221322
0.0221323
0.0221323
0.0221324
0.0221325
0.0221325
0.0221326
0.0221326
0.0221327
0.0221327
0.0221328
0.0221328
0.0221328
0.0221329
0.0221329
0.0221329
0.0221329
0.0221329
0.0221329
0.0221329
0.0221329
0.0221329
0.0221329
0.0221329
0.0221329
0.0221329
0.0221329
0.0221328
0.0221328
0.0221328
0.0221327
0.0221327
0.0221326
0.0221326
0.0221325
0.0221324
0.0221324
0.0221323
0.0221322
0.0221321
0.022132
0.0221319
0.0221318
0.0221317
0.0221315
0.0221314
0.0221312
0.0221311
0.0221309
0.0221307
0.0221305
0.0221303
0.02213
0.0221298
0.0221295
0.0221292
0.0221289
0.0221286
0.0221283
0.0221279
0.0221275
0.0221271
0.0221267
0.0221263
0.0221258
0.0221253
0.0221248
0.0221242
0.0221235
0.0221228
0.0221219
0.0221208
0.0221194
0.0221176
0.0221151
0.0221118
0.0221074
0.0221013
0.0220931
0.0220823
0.022068
0.0220496
0.0220259
0.0219962
0.0219592
0.0219138
0.0218589
0.0217932
0.0217153
0.0216243
0.0230121
0.0230881
0.0231502
0.0232022
0.0232452
0.0232806
0.0233091
0.0233319
0.0233499
0.0233638
0.0233745
0.0233826
0.0233886
0.0233932
0.0233965
0.023399
0.0234009
0.0234024
0.0234035
0.0234045
0.0234053
0.0234061
0.0234068
0.0234075
0.0234081
0.0234088
0.0234094
0.02341
0.0234105
0.0234111
0.0234117
0.0234122
0.0234127
0.0234132
0.0234137
0.0234142
0.0234146
0.0234151
0.0234155
0.0234159
0.0234163
0.0234167
0.023417
0.0234174
0.0234177
0.0234181
0.0234184
0.0234187
0.023419
0.0234193
0.0234196
0.0234199
0.0234201
0.0234204
0.0234207
0.0234209
0.0234212
0.0234214
0.0234216
0.0234218
0.0234221
0.0234223
0.0234225
0.0234227
0.0234229
0.0234231
0.0234233
0.0234235
0.0234236
0.0234238
0.023424
0.0234242
0.0234243
0.0234245
0.0234247
0.0234248
0.0234249
0.0234251
0.0234252
0.0234254
0.0234255
0.0234257
0.0234258
0.0234259
0.023426
0.0234262
0.0234263
0.0234264
0.0234266
0.0234267
0.0234268
0.0234269
0.023427
0.0234271
0.0234272
0.0234273
0.0234274
0.0234275
0.0234276
0.0234277
0.0234278
0.0234279
0.023428
0.0234281
0.0234282
0.0234282
0.0234283
0.0234284
0.0234285
0.0234285
0.0234286
0.0234287
0.0234287
0.0234288
0.0234288
0.0234289
0.0234289
0.023429
0.023429
0.0234291
0.0234291
0.0234292
0.0234292
0.0234292
0.0234293
0.0234293
0.0234293
0.0234293
0.0234293
0.0234293
0.0234293
0.0234293
0.0234293
0.0234293
0.0234293
0.0234293
0.0234292
0.0234292
0.0234292
0.0234292
0.0234291
0.0234291
0.023429
0.023429
0.0234289
0.0234289
0.0234288
0.0234287
0.0234286
0.0234286
0.0234285
0.0234284
0.0234283
0.0234281
0.023428
0.0234279
0.0234277