/*--------------------------------*- C++ -*----------------------------------*\
| =========                 |                                                 |
| \\      /  F ield         | OpenFOAM: The Open Source CFD Toolbox           |
|  \\    /   O peration     | Version:  2412                                  |
|   \\  /    A nd           | Website:  www.openfoam.com                      |
|    \\/     M anipulation  |                                                 |
\*---------------------------------------------------------------------------*/
FoamFile
{
    version     2.0;
    format      ascii;
    arch        "LSB;label=32;scalar=64";
    class       surfaceScalarField;
    location    "100";
    object      phi;
}
// * * * * * * * * * * * * * * * * * * * * * * * * * * * * * * * * * * * * * //

dimensions      [0 3 -1 0 0 0 0];

oriented        oriented;

internalField   nonuniform List<scalar> 
79600
(
-6.69895e-12
6.6544e-12
-1.89142e-11
1.22073e-11
-3.14063e-11
1.24968e-11
-4.1041e-11
9.629e-12
-4.67998e-11
5.76547e-12
-4.88883e-11
2.08539e-12
-4.80431e-11
-8.46989e-13
-4.51597e-11
-2.88114e-12
-4.10743e-11
-4.08202e-12
-3.6453e-11
-4.61901e-12
-3.17761e-11
-4.67774e-12
-2.73465e-11
-4.43033e-12
-2.33381e-11
-4.01084e-12
-1.98154e-11
-3.51997e-12
-1.6789e-11
-3.02382e-12
-1.42289e-11
-2.56054e-12
-1.20849e-11
-2.14619e-12
-1.02986e-11
-1.78773e-12
-8.81365e-12
-1.48416e-12
-7.5825e-12
-1.2328e-12
-6.55594e-12
-1.02485e-12
-5.70119e-12
-8.56303e-13
-4.9866e-12
-7.18999e-13
-4.38508e-12
-6.04424e-13
-3.87483e-12
-5.10251e-13
-3.44018e-12
-4.34349e-13
-3.0673e-12
-3.71822e-13
-2.74836e-12
-3.21009e-13
-2.47164e-12
-2.77444e-13
-2.23153e-12
-2.40317e-13
-2.02094e-12
-2.08753e-13
-1.83612e-12
-1.83074e-13
-1.67382e-12
-1.6196e-13
-1.52824e-12
-1.42475e-13
-1.40382e-12
-1.2819e-13
-1.28688e-12
-1.12295e-13
-1.18805e-12
-1.01362e-13
-1.09297e-12
-9.01487e-14
-1.01192e-12
-8.23233e-14
-9.38035e-13
-7.52424e-14
-8.68952e-13
-6.85507e-14
-8.10652e-13
-6.32589e-14
-7.56582e-13
-5.69229e-14
-7.03727e-13
-5.04625e-14
-6.57492e-13
-4.64777e-14
-6.17134e-13
-4.31187e-14
-5.78537e-13
-3.80957e-14
-5.42411e-13
-3.35163e-14
-5.09948e-13
-3.13389e-14
-4.79416e-13
-3.02632e-14
-4.50421e-13
-2.90091e-14
-4.24657e-13
-2.80584e-14
-4.01711e-13
-2.68336e-14
-3.79765e-13
-2.39816e-14
-3.5868e-13
-2.02621e-14
-3.39272e-13
-1.76587e-14
-3.2105e-13
-1.65548e-14
-3.03353e-13
-1.61529e-14
-2.87081e-13
-1.61891e-14
-2.72934e-13
-1.63653e-14
-2.59837e-13
-1.56162e-14
-2.46607e-13
-1.35171e-14
-2.33676e-13
-1.13839e-14
-2.21888e-13
-1.0603e-14
-2.11056e-13
-1.08128e-14
-2.00714e-13
-1.07751e-14
-1.9111e-13
-1.01618e-14
-1.82349e-13
-9.46666e-15
-1.73648e-13
-8.83177e-15
-1.64478e-13
-8.10515e-15
-1.55533e-13
-7.52632e-15
-1.47658e-13
-7.43353e-15
-1.40654e-13
-7.50402e-15
-1.33773e-13
-7.09779e-15
-1.26939e-13
-6.31181e-15
-1.2056e-13
-5.83073e-15
-1.14484e-13
-5.85683e-15
-1.08203e-13
-5.86344e-15
-1.01836e-13
-5.45449e-15
-9.6108e-14
-4.94414e-15
-9.12583e-14
-4.75746e-15
-8.66318e-14
-4.74681e-15
-8.16733e-14
-4.54694e-15
-7.67077e-14
-4.23234e-15
-7.22585e-14
-4.15941e-15
-6.81162e-14
-4.32519e-15
-6.36343e-14
-4.30249e-15
-5.87687e-14
-3.88615e-15
-5.41942e-14
-3.4421e-15
-5.03404e-14
-3.42328e-15
-4.67803e-14
-3.75794e-15
-4.28165e-14
-3.97683e-15
-3.83745e-14
-3.84335e-15
-3.39656e-14
-3.59275e-15
-2.99147e-14
-3.54833e-15
-2.59978e-14
-3.71542e-15
-2.1884e-14
-3.85613e-15
-1.76372e-14
-3.84099e-15
-1.35738e-14
-3.77188e-15
-9.77345e-15
-3.78536e-15
-5.98434e-15
-3.88348e-15
-2.00015e-15
-4.00497e-15
2.09549e-15
-4.1503e-15
6.14602e-15
-4.33516e-15
1.0206e-14
-4.47347e-15
1.44239e-14
-4.43766e-15
1.8714e-14
-4.2621e-15
2.27735e-14
-4.18637e-15
2.65095e-14
-4.40286e-15
3.02949e-14
-4.79505e-15
3.46338e-14
-5.0305e-15
3.95907e-14
-4.94436e-15
4.4695e-14
-4.74267e-15
4.94754e-14
-4.7486e-15
5.39858e-14
-5.0061e-15
5.86948e-14
-5.25235e-15
6.3922e-14
-5.2825e-15
6.95488e-14
-5.20985e-15
7.52979e-14
-5.28408e-15
8.11299e-14
-5.55174e-15
8.72367e-14
-5.83771e-15
9.37146e-14
-6.01919e-15
1.00436e-13
-6.1555e-15
1.07301e-13
-6.33129e-15
1.14452e-13
-6.52808e-15
1.22127e-13
-6.73006e-15
1.3034e-13
-7.03211e-15
1.38845e-13
-7.51304e-15
1.47438e-13
-8.08673e-15
1.56226e-13
-8.61478e-15
1.65519e-13
-9.08864e-15
1.75569e-13
-9.57298e-15
1.8643e-13
-1.00556e-14
1.97952e-13
-1.04954e-14
2.09908e-13
-1.09659e-14
2.22235e-13
-1.16126e-14
2.35183e-13
-1.25024e-14
2.49082e-13
-1.3644e-14
2.6394e-13
-1.50321e-14
2.79469e-13
-1.6457e-14
2.95673e-13
-1.74672e-14
3.13118e-13
-1.78641e-14
3.32345e-13
-1.80983e-14
3.53278e-13
-1.88439e-14
3.75555e-13
-2.03785e-14
3.9922e-13
-2.27396e-14
4.2452e-13
-2.60022e-14
4.5127e-13
-2.96498e-14
4.7937e-13
-3.22628e-14
5.09686e-13
-3.29455e-14
5.43547e-13
-3.27972e-14
5.81488e-13
-3.40348e-14
6.22981e-13
-3.77177e-14
6.67386e-13
-4.29942e-14
7.14944e-13
-4.84767e-14
7.66679e-13
-5.36213e-14
8.23517e-13
-5.87436e-14
8.85883e-13
-6.43208e-14
9.54334e-13
-7.05425e-14
1.03011e-12
-7.74168e-14
1.11445e-12
-8.50442e-14
1.20814e-12
-9.36415e-14
1.31219e-12
-1.03479e-13
1.42812e-12
-1.14813e-13
1.5577e-12
-1.27992e-13
1.70338e-12
-1.43764e-13
1.86769e-12
-1.62739e-13
2.05292e-12
-1.84754e-13
2.26285e-12
-2.10048e-13
2.50242e-12
-2.39655e-13
2.7767e-12
-2.74459e-13
3.09296e-12
-3.1613e-13
3.45912e-12
-3.66547e-13
3.88368e-12
-4.26366e-13
4.37995e-12
-4.97729e-13
4.96333e-12
-5.84425e-13
5.652e-12
-6.89981e-13
6.47114e-12
-8.19633e-13
7.44865e-12
-9.78955e-13
8.61929e-12
-1.173e-12
1.00275e-11
-1.40919e-12
1.17218e-11
-1.69517e-12
1.37594e-11
-2.03778e-12
1.62021e-11
-2.44255e-12
1.91103e-11
-2.90901e-12
2.25374e-11
-3.42761e-12
2.65119e-11
-3.97491e-12
3.10185e-11
-4.50624e-12
3.59659e-11
-4.94722e-12
4.11506e-11
-5.18551e-12
4.62177e-11
-5.06742e-12
5.06197e-11
-4.40325e-12
5.36097e-11
-2.99024e-12
5.42697e-11
-6.59996e-13
5.16348e-11
2.63459e-12
4.49484e-11
6.68558e-12
3.41068e-11
1.08411e-11
2.03192e-11
1.37908e-11
6.99347e-12
1.33318e-11
6.99981e-12
-1.42545e-11
2.0909e-11
-3.94178e-11
3.73723e-11
-6.49477e-11
3.80309e-11
-8.52449e-11
2.99252e-11
-9.81328e-11
1.86551e-11
-1.0366e-10
7.6172e-12
-1.03055e-10
-1.45359e-12
-9.79785e-11
-7.95743e-12
-9.00847e-11
-1.19818e-11
-8.07522e-11
-1.39463e-11
-7.10334e-11
-1.43952e-11
-6.16259e-11
-1.38299e-11
-5.29621e-11
-1.26755e-11
-4.52447e-11
-1.12411e-11
-3.85288e-11
-9.73558e-12
-3.27876e-11
-8.29967e-12
-2.79342e-11
-6.99638e-12
-2.38609e-11
-5.85737e-12
-2.04589e-11
-4.88616e-12
-1.76196e-11
-4.06932e-12
-1.52485e-11
-3.39214e-12
-1.32641e-11
-2.83586e-12
-1.15962e-11
-2.37862e-12
-1.01916e-11
-2.0061e-12
-9.00249e-12
-1.70011e-12
-7.98726e-12
-1.44695e-12
-7.1185e-12
-1.23802e-12
-6.37071e-12
-1.06645e-12
-5.72306e-12
-9.23483e-13
-5.16071e-12
-8.03487e-13
-4.67029e-12
-7.03492e-13
-4.23969e-12
-6.16236e-13
-3.85884e-12
-5.43621e-13
-3.52418e-12
-4.80489e-13
-3.2252e-12
-4.27993e-13
-2.95924e-12
-3.80521e-13
-2.72312e-12
-3.41303e-13
-2.50857e-12
-3.04455e-13
-2.31805e-12
-2.74241e-13
-2.14524e-12
-2.47229e-13
-1.98781e-12
-2.22752e-13
-1.84732e-12
-2.03541e-13
-1.71907e-12
-1.85772e-13
-1.60132e-12
-1.68835e-13
-1.49446e-12
-1.54942e-13
-1.3961e-12
-1.42764e-13
-1.30627e-12
-1.31347e-13
-1.2255e-12
-1.21111e-13
-1.15071e-12
-1.10878e-13
-1.07981e-12
-1.00347e-13
-1.01435e-12
-9.1636e-14
-9.5452e-13
-8.56536e-14
-8.98104e-13
-8.06609e-14
-8.45358e-13
-7.58158e-14
-7.97849e-13
-7.14242e-14
-7.54511e-13
-6.68423e-14
-7.13198e-13
-6.1287e-14
-6.73799e-13
-5.56689e-14
-6.37192e-13
-5.16594e-14
-6.02876e-13
-4.92515e-14
-5.70058e-13
-4.7034e-14
-5.39496e-13
-4.43485e-14
-5.11917e-13
-4.15766e-14
-4.86114e-13
-3.88621e-14
-4.60678e-13
-3.61327e-14
-4.3616e-13
-3.38893e-14
-4.1379e-13
-3.26021e-14
-3.93109e-13
-3.16172e-14
-3.72763e-13
-2.99388e-14
-3.52695e-13
-2.76769e-14
-3.33852e-13
-2.58089e-14
-3.16278e-13
-2.46883e-14
-2.99212e-13
-2.37643e-14
-2.8272e-13
-2.27093e-14
-2.67541e-13
-2.17812e-14
-2.53563e-13
-2.11018e-14
-2.39617e-13
-2.02275e-14
-2.25176e-13
-1.89247e-14
-2.11218e-13
-1.77246e-14
-1.9872e-13
-1.71557e-14
-1.8726e-13
-1.69406e-14
-1.75827e-13
-1.6434e-14
-1.64334e-13
-1.55698e-14
-1.53472e-13
-1.49006e-14
-1.43334e-13
-1.47005e-14
-1.3311e-13
-1.45521e-14
-1.22341e-13
-1.40153e-14
-1.117e-13
-1.33008e-14
-1.0206e-13
-1.29431e-14
-9.32477e-14
-1.30368e-14
-8.42953e-14
-1.31621e-14
-7.46992e-14
-1.29927e-14
-6.49022e-14
-1.26757e-14
-5.55176e-14
-1.25383e-14
-4.65303e-14
-1.26405e-14
-3.74944e-14
-1.27832e-14
-2.82457e-14
-1.28503e-14
-1.9067e-14
-1.294e-14
-1.01899e-14
-1.31459e-14
-1.45432e-15
-1.3382e-14
7.41897e-15
-1.35263e-14
1.64477e-14
-1.36387e-14
2.54837e-14
-1.38893e-14
3.45657e-14
-1.42872e-14
4.39105e-14
-1.46177e-14
5.35164e-14
-1.47183e-14
6.30149e-14
-1.4725e-14
7.21164e-14
-1.49321e-14
8.11104e-14
-1.54187e-14
9.0683e-14
-1.59231e-14
1.01177e-13
-1.61438e-14
1.12206e-13
-1.61036e-14
1.23128e-13
-1.61205e-14
1.33805e-13
-1.64245e-14
1.44712e-13
-1.69083e-14
1.56317e-13
-1.73134e-14
1.68575e-13
-1.75718e-14
1.81158e-13
-1.78481e-14
1.94001e-13
-1.82707e-14
2.07375e-13
-1.87666e-14
2.21492e-13
-1.92328e-14
2.36259e-13
-1.97607e-14
2.51495e-13
-2.0541e-14
2.67231e-13
-2.15715e-14
2.83682e-13
-2.26111e-14
3.01009e-13
-2.34708e-14
3.19224e-13
-2.42617e-14
3.38246e-13
-2.52752e-14
3.57994e-13
-2.66769e-14
3.78546e-13
-2.84028e-14
4.00215e-13
-3.02903e-14
4.23364e-13
-3.22027e-14
4.48107e-13
-3.40977e-14
4.74219e-13
-3.60728e-14
5.01446e-13
-3.82687e-14
5.2986e-13
-4.06473e-14
5.59845e-13
-4.29911e-14
5.91842e-13
-4.53034e-14
6.26177e-13
-4.80743e-14
6.62942e-13
-5.18152e-14
7.0205e-13
-5.63585e-14
7.43575e-13
-6.09854e-14
7.87958e-13
-6.52409e-14
8.35591e-13
-6.92287e-14
8.86397e-13
-7.31358e-14
9.40483e-13
-7.715e-14
9.98966e-13
-8.20718e-14
1.06297e-12
-8.91069e-14
1.13225e-12
-9.8444e-14
1.206e-12
-1.08665e-13
1.28473e-12
-1.18112e-13
1.37049e-12
-1.26602e-13
1.46502e-12
-1.3552e-13
1.56857e-12
-1.46365e-13
1.68098e-12
-1.59502e-13
1.80312e-12
-1.74476e-13
1.93671e-12
-1.91186e-13
2.08345e-12
-2.10188e-13
2.24499e-12
-2.31854e-13
2.42351e-12
-2.56189e-13
2.62147e-12
-2.83556e-13
2.84111e-12
-3.14648e-13
3.08529e-12
-3.50051e-13
3.3575e-12
-3.90424e-13
3.66153e-12
-4.36408e-13
4.00282e-12
-4.88878e-13
4.38829e-12
-5.49735e-13
4.82408e-12
-6.21177e-13
5.31817e-12
-7.05026e-13
5.88188e-12
-8.03591e-13
6.5269e-12
-9.1965e-13
7.26908e-12
-1.05708e-12
8.1289e-12
-1.22187e-12
9.12697e-12
-1.42041e-12
1.02918e-11
-1.65992e-12
1.16601e-11
-1.95008e-12
1.32731e-11
-2.30229e-12
1.51862e-11
-2.73101e-12
1.74653e-11
-3.25432e-12
2.01854e-11
-3.89161e-12
2.34413e-11
-4.66408e-12
2.73392e-11
-5.59309e-12
3.19975e-11
-6.6968e-12
3.75416e-11
-7.98562e-12
4.40856e-11
-9.45218e-12
5.17173e-11
-1.10586e-11
6.04606e-11
-1.27191e-11
7.02325e-11
-1.42798e-11
8.07797e-11
-1.54955e-11
9.16024e-11
-1.60102e-11
1.01887e-10
-1.53528e-11
1.10444e-10
-1.2962e-11
1.15718e-10
-8.26611e-12
1.15894e-10
-8.36257e-13
1.09174e-10
9.35475e-12
9.4302e-11
2.15579e-11
7.13682e-11
3.37707e-11
4.29315e-11
4.22189e-11
1.53101e-11
4.09418e-11
2.23143e-11
-1.66438e-11
3.75576e-11
-4.63454e-11
6.70689e-11
-7.67997e-11
6.8486e-11
-1.01564e-10
5.46904e-11
-1.17952e-10
3.50453e-11
-1.25778e-10
1.54447e-11
-1.26257e-10
-9.72938e-13
-1.21198e-10
-1.30135e-11
-1.12479e-10
-2.06975e-11
-1.01746e-10
-2.46839e-11
-9.02685e-11
-2.58707e-11
-7.89489e-11
-2.51464e-11
-6.83557e-11
-2.32676e-11
-5.87918e-11
-2.0803e-11
-5.03791e-11
-1.81535e-11
-4.31083e-11
-1.55702e-11
-3.69059e-11
-1.31975e-11
-3.16583e-11
-1.11027e-11
-2.72405e-11
-9.30142e-12
-2.35314e-11
-7.7777e-12
-2.04187e-11
-6.50749e-12
-1.77982e-11
-5.45588e-12
-1.55908e-11
-4.58959e-12
-1.37215e-11
-3.87675e-12
-1.21327e-11
-3.28993e-12
-1.07748e-11
-2.80469e-12
-9.61166e-12
-2.40446e-12
-8.60682e-12
-2.07018e-12
-7.7357e-12
-1.79149e-12
-6.97909e-12
-1.56006e-12
-6.31524e-12
-1.36277e-12
-5.73538e-12
-1.19829e-12
-5.22037e-12
-1.05504e-12
-4.76955e-12
-9.34967e-13
-4.36246e-12
-8.30306e-13
-4.00561e-12
-7.4039e-13
-3.68211e-12
-6.62603e-13
-3.39496e-12
-5.95263e-13
-3.13568e-12
-5.3426e-13
-2.90044e-12
-4.83162e-13
-2.68991e-12
-4.38837e-13
-2.4979e-12
-3.96643e-13
-2.32269e-12
-3.59415e-13
-2.16472e-12
-3.28222e-13
-2.01975e-12
-2.99758e-13
-1.88572e-12
-2.7357e-13
-1.7641e-12
-2.51903e-13
-1.65318e-12
-2.33513e-13
-1.5499e-12
-2.15665e-13
-1.4546e-12
-1.98595e-13
-1.36777e-12
-1.83185e-13
-1.28673e-12
-1.68696e-13
-1.20994e-12
-1.54997e-13
-1.13881e-12
-1.43617e-13
-1.07382e-12
-1.34864e-13
-1.01332e-12
-1.26919e-13
-9.56606e-13
-1.1871e-13
-9.04411e-13
-1.10759e-13
-8.55952e-13
-1.03263e-13
-8.09209e-13
-9.59043e-14
-7.64122e-13
-8.9218e-14
-7.22534e-13
-8.41273e-14
-6.84812e-13
-8.01621e-14
-6.49284e-13
-7.58508e-14
-6.15037e-13
-7.0921e-14
-5.8272e-13
-6.64562e-14
-5.52456e-13
-6.3043e-14
-5.23293e-13
-6.0017e-14
-4.94896e-13
-5.68302e-14
-4.68146e-13
-5.38361e-14
-4.43383e-13
-5.12804e-14
-4.19667e-13
-4.87692e-14
-3.96376e-13
-4.6063e-14
-3.74196e-13
-4.37159e-14
-3.53753e-13
-4.2157e-14
-3.34299e-13
-4.08695e-14
-3.14815e-13
-3.90927e-14
-2.9556e-13
-3.69255e-14
-2.7755e-13
-3.5154e-14
-2.60916e-13
-3.40608e-14
-2.44788e-13
-3.31049e-14
-2.2873e-13
-3.18686e-14
-2.13324e-13
-3.0639e-14
-1.98981e-13
-2.9804e-14
-1.85034e-13
-2.91799e-14
-1.70607e-13
-2.83079e-14
-1.55935e-13
-2.72008e-14
-1.4206e-13
-2.63592e-14
-1.2938e-13
-2.60644e-14
-1.17133e-13
-2.6008e-14
-1.04437e-13
-2.57446e-14
-9.13165e-14
-2.52513e-14
-7.8415e-14
-2.48519e-14
-6.602e-14
-2.47397e-14
-5.38063e-14
-2.47857e-14
-4.14433e-14
-2.48071e-14
-2.90491e-14
-2.48311e-14
-1.68975e-14
-2.49933e-14
-4.94934e-15
-2.52925e-14
7.06341e-15
-2.55949e-14
1.92126e-14
-2.58506e-14
3.13288e-14
-2.61641e-14
4.33993e-14
-2.66094e-14
5.57343e-14
-2.70787e-14
6.85537e-14
-2.74171e-14
8.15655e-14
-2.76644e-14
9.42309e-14
-2.80453e-14
1.06491e-13
-2.86828e-14
1.1901e-13
-2.94095e-14
1.32514e-13
-2.99509e-14
1.4698e-13
-3.02628e-14
1.61698e-13
-3.05836e-14
1.76146e-13
-3.11311e-14
1.9059e-13
-3.18458e-14
2.05697e-13
-3.25155e-14
2.21731e-13
-3.30935e-14
2.38377e-13
-3.37615e-14
2.55334e-13
-3.46675e-14
2.72767e-13
-3.57292e-14
2.91021e-13
-3.67671e-14
3.10133e-13
-3.77561e-14
3.29907e-13
-3.88626e-14
3.5034e-13
-4.02604e-14
3.71714e-13
-4.19818e-14
3.94235e-13
-4.39406e-14
4.17811e-13
-4.60226e-14
4.42301e-13
-4.81646e-14
4.67773e-13
-5.04213e-14
4.94401e-13
-5.29459e-14
5.22375e-13
-5.58443e-14
5.5198e-13
-5.90604e-14
5.83488e-13
-6.24596e-14
6.16905e-13
-6.60359e-14
6.52045e-13
-6.99702e-14
6.88933e-13
-7.44414e-14
7.27899e-13
-7.94265e-14
7.6915e-13
-8.47041e-14
8.12654e-13
-9.00286e-14
8.58732e-13
-9.53836e-14
9.08199e-13
-1.01118e-13
9.61602e-13
-1.07721e-13
1.01883e-12
-1.15413e-13
1.07981e-12
-1.24088e-13
1.14498e-12
-1.33674e-13
1.21451e-12
-1.44148e-13
1.2881e-12
-1.55038e-13
1.36659e-12
-1.65697e-13
1.45218e-12
-1.7653e-13
1.54625e-12
-1.89229e-13
1.64831e-12
-2.05159e-13
1.75767e-12
-2.23934e-13
1.87518e-12
-2.44182e-13
2.00292e-12
-2.65413e-13
2.14267e-12
-2.88448e-13
2.29537e-12
-3.14255e-13
2.46184e-12
-3.43219e-13
2.64364e-12
-3.75586e-13
2.84327e-12
-4.11942e-13
3.06335e-12
-4.52973e-13
3.30639e-12
-4.99276e-13
3.57531e-12
-5.51699e-13
3.87355e-12
-6.11345e-13
4.20509e-12
-6.79524e-13
4.57482e-12
-7.58042e-13
4.98803e-12
-8.48552e-13
5.45107e-12
-9.52338e-13
5.97281e-12
-1.07198e-12
6.56268e-12
-1.21135e-12
7.23134e-12
-1.37443e-12
7.99359e-12
-1.56629e-12
8.86528e-12
-1.79293e-12
9.86581e-12
-2.06081e-12
1.10223e-11
-2.37967e-12
1.23632e-11
-2.76224e-12
1.39245e-11
-3.22286e-12
1.57539e-11
-3.77989e-12
1.79042e-11
-4.45523e-12
2.04438e-11
-5.27412e-12
2.3457e-11
-6.26816e-12
2.70372e-11
-7.473e-12
3.12986e-11
-8.92581e-12
3.63684e-11
-1.06631e-11
4.23827e-11
-1.27131e-11
4.94825e-11
-1.50859e-11
5.77878e-11
-1.77581e-11
6.73773e-11
-2.06473e-11
7.82411e-11
-2.35827e-11
9.02266e-11
-2.62668e-11
1.02969e-10
-2.82387e-11
1.15803e-10
-2.88461e-11
1.27695e-10
-2.72454e-11
1.37191e-10
-2.24587e-11
1.4245e-10
-1.35258e-11
1.41396e-10
2.15739e-13
1.3207e-10
1.86803e-11
1.13227e-10
4.04053e-11
8.52159e-11
6.17884e-11
5.11548e-11
7.62858e-11
1.82849e-11
7.38058e-11
4.06002e-11
-1.56754e-11
5.32348e-11
-4.41364e-11
9.55332e-11
-7.38469e-11
9.81946e-11
-9.8582e-11
7.94245e-11
-1.15605e-10
5.20725e-11
-1.2452e-10
2.43634e-11
-1.26292e-10
7.9559e-13
-1.22505e-10
-1.67992e-11
-1.14889e-10
-2.83125e-11
-1.05008e-10
-3.45673e-11
-9.41133e-11
-3.6765e-11
-8.31275e-11
-3.61339e-11
-7.26537e-11
-3.37383e-11
-6.30479e-11
-3.04057e-11
-5.44771e-11
-2.67248e-11
-4.69767e-11
-2.30716e-11
-4.05035e-11
-1.96735e-11
-3.49679e-11
-1.66385e-11
-3.02594e-11
-1.40056e-11
-2.62727e-11
-1.17659e-11
-2.28986e-11
-9.88388e-12
-2.00371e-11
-8.31425e-12
-1.76112e-11
-7.01568e-12
-1.55449e-11
-5.94129e-12
-1.37784e-11
-5.05312e-12
-1.22646e-11
-4.31982e-12
-1.09594e-11
-3.70929e-12
-9.83001e-12
-3.20141e-12
-8.85006e-12
-2.77561e-12
-7.99171e-12
-2.41781e-12
-7.24253e-12
-2.11583e-12
-6.57998e-12
-1.85861e-12
-5.99775e-12
-1.63976e-12
-5.48143e-12
-1.45259e-12
-5.01777e-12
-1.28896e-12
-4.61004e-12
-1.15228e-12
-4.24018e-12
-1.03014e-12
-3.9092e-12
-9.25504e-13
-3.61444e-12
-8.33003e-13
-3.34533e-12
-7.50534e-13
-3.10039e-12
-6.8049e-13
-2.8797e-12
-6.18688e-13
-2.68013e-12
-5.62696e-13
-2.49752e-12
-5.1273e-13
-2.32964e-12
-4.67853e-13
-2.17701e-12
-4.2801e-13
-2.03776e-12
-3.92906e-13
-1.90829e-12
-3.61056e-13
-1.78818e-12
-3.32417e-13
-1.67844e-12
-3.0762e-13
-1.57771e-12
-2.85465e-13
-1.48346e-12
-2.6408e-13
-1.39587e-12
-2.43919e-13
-1.3153e-12
-2.26076e-13
-1.24003e-12
-2.10145e-13
-1.16899e-12
-1.95564e-13
-1.10304e-12
-1.82756e-13
-1.04251e-12
-1.71743e-13
-9.85891e-13
-1.61193e-13
-9.31846e-13
-1.5026e-13
-8.80831e-13
-1.39949e-13
-8.33439e-13
-1.31399e-13
-7.88931e-13
-1.2415e-13
-7.46652e-13
-1.17241e-13
-7.07043e-13
-1.10618e-13
-6.70312e-13
-1.04636e-13
-6.35279e-13
-9.89699e-14
-6.01021e-13
-9.32945e-14
-5.6814e-13
-8.80785e-14
-5.37456e-13
-8.38418e-14
-5.08593e-13
-8.02064e-14
-4.80661e-13
-7.63783e-14
-4.53847e-13
-7.24226e-14
-4.28792e-13
-6.90233e-14
-4.05188e-13
-6.63131e-14
-3.81959e-13
-6.36691e-14
-3.58892e-13
-6.07621e-14
-3.36968e-13
-5.80298e-14
-3.16714e-13
-5.58868e-14
-2.97392e-13
-5.40707e-14
-2.78221e-13
-5.21194e-14
-2.59504e-13
-5.01234e-14
-2.41962e-13
-4.85471e-14
-2.25395e-13
-4.74157e-14
-2.08781e-13
-4.62113e-14
-1.91718e-13
-4.4652e-14
-1.74989e-13
-4.31265e-14
-1.59445e-13
-4.21491e-14
-1.44837e-13
-4.16788e-14
-1.30211e-13
-4.12402e-14
-1.15129e-13
-4.05634e-14
-1.0002e-13
-3.98385e-14
-8.53885e-14
-3.93519e-14
-7.11311e-14
-3.91186e-14
-5.68387e-14
-3.8978e-14
-4.2443e-14
-3.88849e-14
-2.82261e-14
-3.8934e-14
-1.42989e-14
-3.91435e-14
-4.10586e-16
-3.93876e-14
1.36558e-14
-3.95954e-14
2.77718e-14
-3.98877e-14
4.17464e-14
-4.04052e-14
5.57582e-14
-4.10656e-14
7.02165e-14
-4.16275e-14
8.51707e-14
-4.20116e-14
1.00124e-13
-4.24467e-14
1.14624e-13
-4.32053e-14
1.28927e-13
-4.42415e-14
1.43839e-13
-4.52081e-14
1.59852e-13
-4.58694e-14
1.76619e-13
-4.63976e-14
1.93431e-13
-4.71642e-14
2.10072e-13
-4.82855e-14
2.2702e-13
-4.95118e-14
2.44799e-13
-5.05872e-14
2.63424e-13
-5.15867e-14
2.82584e-13
-5.27873e-14
3.02201e-13
-5.42936e-14
3.22556e-13
-5.59597e-14
3.43869e-13
-5.76687e-14
3.6601e-13
-5.95086e-14
3.88783e-13
-6.1609e-14
4.12326e-13
-6.39528e-14
4.37041e-13
-6.64665e-14
4.63166e-13
-6.92058e-14
4.90567e-13
-7.23048e-14
5.18988e-13
-7.57922e-14
5.4842e-13
-7.96089e-14
5.79143e-13
-8.37557e-14
6.11564e-13
-8.82742e-14
6.4604e-13
-9.31365e-14
6.82677e-13
-9.83018e-14
7.21288e-13
-1.0384e-13
7.61735e-13
-1.09863e-13
8.04304e-13
-1.16398e-13
8.49558e-13
-1.23512e-13
8.97754e-13
-1.31445e-13
9.48667e-13
-1.40334e-13
1.00229e-12
-1.49888e-13
1.05937e-12
-1.59734e-13
1.1208e-12
-1.69971e-13
1.18687e-12
-1.81021e-13
1.25743e-12
-1.93119e-13
1.33281e-12
-2.06522e-13
1.41367e-12
-2.21931e-13
1.5001e-12
-2.39774e-13
1.59209e-12
-2.59251e-13
1.69072e-12
-2.79201e-13
1.79783e-12
-2.99819e-13
1.91471e-12
-3.22673e-13
2.04166e-12
-3.49073e-13
2.17873e-12
-3.79125e-13
2.32691e-12
-4.12403e-13
2.4881e-12
-4.48963e-13
2.6641e-12
-4.89537e-13
2.85614e-12
-5.3506e-13
3.0658e-12
-5.86168e-13
3.29591e-12
-6.43401e-13
3.54952e-12
-7.07703e-13
3.82928e-12
-7.80265e-13
4.13844e-12
-8.62322e-13
4.48087e-12
-9.55334e-13
4.86084e-12
-1.06114e-12
5.28422e-12
-1.18223e-12
5.75771e-12
-1.32166e-12
6.28769e-12
-1.48237e-12
6.88312e-12
-1.66803e-12
7.55526e-12
-1.88364e-12
8.31569e-12
-2.1351e-12
9.18052e-12
-2.43014e-12
1.01685e-11
-2.77847e-12
1.12992e-11
-3.1907e-12
1.26007e-11
-3.68049e-12
1.41055e-11
-4.26581e-12
1.58504e-11
-4.96792e-12
1.78856e-11
-5.81368e-12
2.02671e-11
-6.83553e-12
2.30622e-11
-8.07035e-12
2.6356e-11
-9.56208e-12
3.02422e-11
-1.13599e-11
3.48306e-11
-1.35148e-11
4.02428e-11
-1.60746e-11
4.66024e-11
-1.90732e-11
5.40311e-11
-2.25147e-11
6.26225e-11
-2.63503e-11
7.24196e-11
-3.04445e-11
8.3369e-11
-3.45319e-11
9.52663e-11
-3.81653e-11
1.07695e-10
-4.06676e-11
1.19945e-10
-4.10979e-11
1.30962e-10
-3.8264e-11
1.39316e-10
-3.0813e-11
1.43247e-10
-1.74571e-11
1.40837e-10
2.62418e-12
1.30348e-10
2.91652e-11
1.10787e-10
5.99633e-11
8.2704e-11
8.98713e-11
4.92517e-11
1.09744e-10
1.74354e-11
1.05621e-10
5.80354e-11
-1.27235e-11
6.59526e-11
-3.63757e-11
1.19185e-10
-6.16442e-11
1.23464e-10
-8.32914e-11
1.01063e-10
-9.88629e-11
6.76424e-11
-1.07818e-10
3.33146e-11
-1.10754e-10
3.72978e-12
-1.08841e-10
-1.8713e-11
-1.03427e-10
-3.37251e-11
-9.57847e-11
-4.22086e-11
-8.69759e-11
-4.55748e-11
-7.78116e-11
-4.53011e-11
-6.88574e-11
-4.26964e-11
-6.04673e-11
-3.87974e-11
-5.28343e-11
-3.43541e-11
-4.60406e-11
-2.98658e-11
-4.00822e-11
-2.56322e-11
-3.49142e-11
-2.18106e-11
-3.04594e-11
-1.84606e-11
-2.66377e-11
-1.55864e-11
-2.33655e-11
-1.31544e-11
-2.05654e-11
-1.11168e-11
-1.81661e-11
-9.41635e-12
-1.6106e-11
-8.0018e-12
-1.43335e-11
-6.82714e-12
-1.28012e-11
-5.84908e-12
-1.14743e-11
-5.03579e-12
-1.0319e-11
-4.35362e-12
-9.31218e-12
-3.78361e-12
-8.42718e-12
-3.30104e-12
-7.65019e-12
-2.89275e-12
-6.96256e-12
-2.54606e-12
-6.35657e-12
-2.24926e-12
-5.81355e-12
-1.99287e-12
-5.33403e-12
-1.77313e-12
-4.90142e-12
-1.58186e-12
-4.51496e-12
-1.41671e-12
-4.16515e-12
-1.27247e-12
-3.85239e-12
-1.14789e-12
-3.57081e-12
-1.03664e-12
-3.31156e-12
-9.36318e-13
-3.07639e-12
-8.4979e-13
-2.8646e-12
-7.74647e-13
-2.67021e-12
-7.06526e-13
-2.49193e-12
-6.45449e-13
-2.33012e-12
-5.91943e-13
-2.18134e-12
-5.43618e-13
-2.04314e-12
-4.98905e-13
-1.91596e-12
-4.58826e-13
-1.7991e-12
-4.23534e-13
-1.69013e-12
-3.91613e-13
-1.58869e-12
-3.62537e-13
-1.49564e-12
-3.36694e-13
-1.40974e-12
-3.1332e-13
-1.32897e-12
-2.91123e-13
-1.2533e-12
-2.70405e-13
-1.18331e-12
-2.52158e-13
-1.1179e-12
-2.36043e-13
-1.05583e-12
-2.20993e-13
-9.97598e-13
-2.06865e-13
-9.4388e-13
-1.94062e-13
-8.93631e-13
-1.82385e-13
-8.45496e-13
-1.71337e-13
-7.99741e-13
-1.61182e-13
-7.57284e-13
-1.52392e-13
-7.17604e-13
-1.44521e-13
-6.79411e-13
-1.36704e-13
-6.42575e-13
-1.28952e-13
-6.07856e-13
-1.2202e-13
-5.75178e-13
-1.16085e-13
-5.4364e-13
-1.10577e-13
-5.1315e-13
-1.05167e-13
-4.84553e-13
-1.00261e-13
-4.57988e-13
-9.60696e-14
-4.3236e-13
-9.21113e-14
-4.06855e-13
-8.79564e-14
-3.82045e-13
-8.39228e-14
-3.58901e-13
-8.06055e-14
-3.37232e-13
-7.79182e-14
-3.16052e-13
-7.52412e-14
-2.9515e-13
-7.23906e-14
-2.7526e-13
-6.98231e-14
-2.56665e-13
-6.78506e-14
-2.3856e-13
-6.61352e-14
-2.20122e-13
-6.4184e-14
-2.0165e-13
-6.20715e-14
-1.84102e-13
-6.03215e-14
-1.67751e-13
-5.91855e-14
-1.51859e-13
-5.83496e-14
-1.35672e-13
-5.74036e-14
-1.19261e-13
-5.63353e-14
-1.03175e-13
-5.54178e-14
-8.75989e-14
-5.47835e-14
-7.21993e-14
-5.43157e-14
-5.66979e-14
-5.39214e-14
-4.12303e-14
-5.36962e-14
-2.60237e-14
-5.3734e-14
-1.09935e-14
-5.39237e-14
4.11343e-15
-5.40777e-14
1.93162e-14
-5.42077e-14
3.44189e-14
-5.45251e-14
4.94348e-14
-5.51393e-14
6.47311e-14
-5.58768e-14
8.05836e-14
-5.64963e-14
9.67254e-14
-5.70246e-14
1.12592e-13
-5.77529e-14
1.28057e-13
-5.88687e-14
1.43712e-13
-6.01909e-14
1.60272e-13
-6.13655e-14
1.77801e-13
-6.22909e-14
1.95719e-13
-6.32401e-14
2.13564e-13
-6.45232e-14
2.31519e-13
-6.61314e-14
2.501e-13
-6.78101e-14
2.69513e-13
-6.94247e-14
2.89553e-13
-7.1116e-14
3.10068e-13
-7.30683e-14
3.31235e-13
-7.52553e-14
3.53314e-13
-7.75294e-14
3.76326e-13
-7.99044e-14
4.00102e-13
-8.25909e-14
4.24603e-13
-8.57311e-14
4.50041e-13
-8.92255e-14
4.76703e-13
-9.28903e-14
5.0476e-13
-9.67162e-14
5.34174e-13
-1.00883e-13
5.64759e-13
-1.0556e-13
5.96444e-13
-1.10788e-13
6.29508e-13
-1.16522e-13
6.64467e-13
-1.22696e-13
7.01694e-13
-1.29281e-13
7.41166e-13
-1.3639e-13
7.82663e-13
-1.44217e-13
8.26181e-13
-1.52799e-13
8.72009e-13
-1.61922e-13
9.20533e-13
-1.7145e-13
9.721e-13
-1.81701e-13
1.02691e-12
-1.93207e-13
1.08506e-12
-2.06126e-13
1.14685e-12
-2.20179e-13
1.21294e-12
-2.35199e-13
1.28389e-12
-2.51352e-13
1.35958e-12
-2.68725e-13
1.43987e-12
-2.87219e-13
1.52566e-12
-3.07205e-13
1.61834e-12
-3.29706e-13
1.7183e-12
-3.55426e-13
1.82531e-12
-3.84042e-13
1.93996e-12
-4.14864e-13
2.06395e-12
-4.47941e-13
2.19886e-12
-4.84275e-13
2.34538e-12
-5.24961e-13
2.50407e-12
-5.70439e-13
2.67625e-12
-6.20804e-13
2.86367e-12
-6.76654e-13
3.06803e-12
-7.3916e-13
3.29124e-12
-8.09303e-13
3.53592e-12
-8.87855e-13
3.8051e-12
-9.76099e-13
4.10168e-12
-1.07571e-12
4.42904e-12
-1.18847e-12
4.79109e-12
-1.31659e-12
5.19197e-12
-1.46242e-12
5.63749e-12
-1.62854e-12
6.13503e-12
-1.81889e-12
6.69118e-12
-2.03826e-12
7.31428e-12
-2.29169e-12
8.01584e-12
-2.58569e-12
8.80705e-12
-2.92803e-12
9.70314e-12
-3.32798e-12
1.07239e-11
-3.7983e-12
1.18877e-11
-4.35411e-12
1.322e-11
-5.01306e-12
1.47528e-11
-5.79795e-12
1.65192e-11
-6.73609e-12
1.85652e-11
-7.86058e-12
2.09434e-11
-9.21241e-12
2.3711e-11
-1.08386e-11
2.69417e-11
-1.27927e-11
3.07151e-11
-1.51336e-11
3.51195e-11
-1.79208e-11
4.02526e-11
-2.12072e-11
4.62055e-11
-2.50261e-11
5.30612e-11
-2.93694e-11
6.08691e-11
-3.41581e-11
6.96251e-11
-3.92009e-11
7.92349e-11
-4.4141e-11
8.94653e-11
-4.83968e-11
9.99024e-11
-5.11043e-11
1.09888e-10
-5.10845e-11
1.18491e-10
-4.68682e-11
1.24498e-10
-3.68199e-11
1.26467e-10
-1.94255e-11
1.22887e-10
6.20614e-12
1.12459e-10
3.95936e-11
9.45517e-11
7.78683e-11
6.98368e-11
1.14583e-10
4.11231e-11
1.38459e-10
1.43529e-11
1.32392e-10
7.23881e-11
-8.8484e-12
7.48025e-11
-2.58839e-11
1.36221e-10
-4.46873e-11
1.42265e-10
-6.14346e-11
1.17816e-10
-7.42035e-11
8.04115e-11
-8.23704e-11
4.14866e-11
-8.61595e-11
7.51644e-12
-8.62396e-11
-1.86336e-11
-8.3477e-11
-3.64898e-11
-7.8743e-11
-4.69468e-11
-7.28053e-11
-5.1511e-11
-6.62895e-11
-5.18154e-11
-5.96649e-11
-4.93236e-11
-5.32491e-11
-4.52149e-11
-4.7243e-11
-4.03603e-11
-4.17565e-11
-3.53524e-11
-3.68326e-11
-3.05536e-11
-3.24695e-11
-2.61722e-11
-2.86388e-11
-2.22934e-11
-2.52932e-11
-1.89322e-11
-2.23838e-11
-1.60655e-11
-1.98554e-11
-1.36429e-11
-1.76608e-11
-1.16105e-11
-1.57558e-11
-9.90851e-12
-1.40975e-11
-8.48678e-12
-1.26535e-11
-7.29718e-12
-1.13885e-11
-6.29969e-12
-1.02839e-11
-5.46372e-12
-9.30943e-12
-4.75752e-12
-8.45108e-12
-4.15926e-12
-7.69298e-12
-3.65229e-12
-7.01833e-12
-3.21852e-12
-6.41989e-12
-2.84723e-12
-5.88411e-12
-2.52765e-12
-5.40781e-12
-2.25358e-12
-4.97779e-12
-2.01141e-12
-4.5919e-12
-1.80412e-12
-4.24347e-12
-1.62138e-12
-3.92766e-12
-1.46083e-12
-3.6425e-12
-1.32205e-12
-3.38351e-12
-1.19818e-12
-3.14748e-12
-1.08716e-12
-2.93185e-12
-9.8907e-13
-2.73457e-12
-9.0218e-13
-2.5549e-12
-8.25389e-13
-2.39018e-12
-7.57092e-13
-2.23749e-12
-6.95183e-13
-2.09691e-12
-6.39327e-13
-1.96811e-12
-5.89339e-13
-1.84876e-12
-5.4376e-13
-1.73714e-12
-5.01779e-13
-1.63397e-12
-4.64318e-13
-1.53892e-12
-4.31283e-13
-1.44998e-12
-4.01181e-13
-1.36668e-12
-3.73299e-13
-1.28978e-12
-3.47926e-13
-1.21853e-12
-3.24831e-13
-1.151e-12
-3.03204e-13
-1.08678e-12
-2.83112e-13
-1.02705e-12
-2.65309e-13
-9.71911e-13
-2.49623e-13
-9.19883e-13
-2.34871e-13
-8.70298e-13
-2.20687e-13
-8.2372e-13
-2.07754e-13
-7.8019e-13
-1.96347e-13
-7.38669e-13
-1.85778e-13
-6.98693e-13
-1.75591e-13
-6.60918e-13
-1.66206e-13
-6.25586e-13
-1.57906e-13
-5.91828e-13
-1.50215e-13
-5.58919e-13
-1.42677e-13
-5.27525e-13
-1.35682e-13
-4.98324e-13
-1.29716e-13
-4.7074e-13
-1.24467e-13
-4.43689e-13
-1.19181e-13
-4.17117e-13
-1.1378e-13
-3.91923e-13
-1.08914e-13
-3.68385e-13
-1.04914e-13
-3.45716e-13
-1.01336e-13
-3.23347e-13
-9.76935e-14
-3.01753e-13
-9.41619e-14
-2.81561e-13
-9.11928e-14
-2.62369e-13
-8.87247e-14
-2.43164e-13
-8.62388e-14
-2.23699e-13
-8.35299e-14
-2.04774e-13
-8.10006e-14
-1.87078e-13
-7.90843e-14
-1.70267e-13
-7.7683e-14
-1.5348e-13
-7.63609e-14
-1.36399e-13
-7.49108e-14
-1.19426e-13
-7.35129e-14
-1.02949e-13
-7.23886e-14
-8.6841e-14
-7.15193e-14
-7.07739e-14
-7.07753e-14
-5.4706e-14
-7.01663e-14
-3.88193e-14
-6.98155e-14
-2.31198e-14
-6.97289e-14
-7.39092e-15
-6.97458e-14
8.44207e-15
-6.9762e-14
2.41679e-14
-6.98873e-14
3.9662e-14
-7.02884e-14
5.52327e-14
-7.09347e-14
7.13463e-14
-7.16186e-14
8.80123e-14
-7.22428e-14
1.04673e-13
-7.29837e-14
1.20855e-13
-7.40835e-14
1.36825e-13
-7.55233e-14
1.53381e-13
-7.70155e-14
1.70985e-13
-7.83465e-14
1.89297e-13
-7.96354e-14
2.07681e-13
-8.11746e-14
2.26003e-13
-8.30681e-14
2.44719e-13
-8.51462e-14
2.64239e-13
-8.7243e-14
2.84487e-13
-8.94295e-14
3.05201e-13
-9.18923e-14
3.2644e-13
-9.46713e-14
3.48514e-13
-9.76313e-14
3.71537e-13
-1.00676e-13
3.9533e-13
-1.03896e-13
4.1978e-13
-1.0748e-13
4.45086e-13
-1.11531e-13
4.71559e-13
-1.16017e-13
4.99331e-13
-1.20845e-13
5.28386e-13
-1.25965e-13
5.5869e-13
-1.31447e-13
5.90189e-13
-1.37457e-13
6.22912e-13
-1.44118e-13
6.57179e-13
-1.51395e-13
6.93465e-13
-1.5917e-13
7.31986e-13
-1.67434e-13
7.72622e-13
-1.76382e-13
8.15331e-13
-1.86256e-13
8.60401e-13
-1.97153e-13
9.08077e-13
-2.08991e-13
9.58305e-13
-2.21635e-13
1.0112e-12
-2.35076e-13
1.06733e-12
-2.49546e-13
1.12726e-12
-2.65373e-13
1.19119e-12
-2.82709e-13
1.25943e-12
-3.01563e-13
1.33264e-12
-3.22178e-13
1.41093e-12
-3.45013e-13
1.49372e-12
-3.70081e-13
1.58134e-12
-3.96882e-13
1.67555e-12
-4.25422e-13
1.77777e-12
-4.56746e-13
1.8881e-12
-4.92001e-13
2.00638e-12
-5.31385e-13
2.13342e-12
-5.74536e-13
2.27084e-12
-6.21662e-13
2.42007e-12
-6.73715e-13
2.58208e-12
-7.31623e-13
2.75768e-12