/*--------------------------------*- C++ -*----------------------------------*\
| =========                 |                                                 |
| \\      /  F ield         | OpenFOAM: The Open Source CFD Toolbox           |
|  \\    /   O peration     | Version:  2412                                  |
|   \\  /    A nd           | Website:  www.openfoam.com                      |
|    \\/     M anipulation  |                                                 |
\*---------------------------------------------------------------------------*/
FoamFile
{
    version     2.0;
    format      ascii;
    arch        "LSB;label=32;scalar=64";
    class       volVectorField;
    location    "100";
    object      U;
}
// * * * * * * * * * * * * * * * * * * * * * * * * * * * * * * * * * * * * * //

dimensions      [0 1 -1 0 0 0 0];

internalField   nonuniform List<vector> 
40000
(
(-1.64994e-07 4.94491e-07 0)
(-2.23085e-06 5.76989e-07 0)
(-5.03599e-06 5.08278e-07 0)
(-7.35243e-06 3.54971e-07 0)
(-8.91794e-06 1.81097e-07 0)
(-9.68621e-06 3.01787e-08 0)
(-9.77548e-06 -8.03413e-08 0)
(-9.36484e-06 -1.50731e-07 0)
(-8.63561e-06 -1.87098e-07 0)
(-7.74043e-06 -1.98689e-07 0)
(-6.79434e-06 -1.94106e-07 0)
(-5.8747e-06 -1.79911e-07 0)
(-5.02693e-06 -1.60973e-07 0)
(-4.27375e-06 -1.41241e-07 0)
(-3.62083e-06 -1.22094e-07 0)
(-3.06524e-06 -1.05148e-07 0)
(-2.59848e-06 -9.04632e-08 0)
(-2.20885e-06 -7.79639e-08 0)
(-1.88524e-06 -6.74638e-08 0)
(-1.61667e-06 -5.88668e-08 0)
(-1.39339e-06 -5.19436e-08 0)
(-1.2074e-06 -4.66354e-08 0)
(-1.05222e-06 -4.23775e-08 0)
(-9.22087e-07 -3.87868e-08 0)
(-8.12234e-07 -3.58659e-08 0)
(-7.18947e-07 -3.33921e-08 0)
(-6.39169e-07 -3.12893e-08 0)
(-5.70766e-07 -2.96863e-08 0)
(-5.11826e-07 -2.8338e-08 0)
(-4.60663e-07 -2.72044e-08 0)
(-4.16098e-07 -2.62366e-08 0)
(-3.77073e-07 -2.54005e-08 0)
(-3.42784e-07 -2.46787e-08 0)
(-3.12431e-07 -2.40584e-08 0)
(-2.85663e-07 -2.36294e-08 0)
(-2.6176e-07 -2.31016e-08 0)
(-2.40463e-07 -2.284e-08 0)
(-2.21427e-07 -2.24209e-08 0)
(-2.04126e-07 -2.21404e-08 0)
(-1.88714e-07 -2.18857e-08 0)
(-1.74679e-07 -2.16601e-08 0)
(-1.62079e-07 -2.15834e-08 0)
(-1.50861e-07 -2.1433e-08 0)
(-1.40404e-07 -2.11958e-08 0)
(-1.30742e-07 -2.10527e-08 0)
(-1.22113e-07 -2.09448e-08 0)
(-1.14252e-07 -2.07815e-08 0)
(-1.06953e-07 -2.0646e-08 0)
(-1.00236e-07 -2.05586e-08 0)
(-9.40008e-08 -2.04662e-08 0)
(-8.81511e-08 -2.03976e-08 0)
(-8.28022e-08 -2.04192e-08 0)
(-7.79893e-08 -2.04374e-08 0)
(-7.35194e-08 -2.03613e-08 0)
(-6.9293e-08 -2.02369e-08 0)
(-6.53518e-08 -2.01359e-08 0)
(-6.16718e-08 -2.00681e-08 0)
(-5.81747e-08 -2.00278e-08 0)
(-5.48883e-08 -2.00358e-08 0)
(-5.19012e-08 -2.0072e-08 0)
(-4.91726e-08 -2.00607e-08 0)
(-4.65683e-08 -1.998e-08 0)
(-4.4056e-08 -1.99022e-08 0)
(-4.16995e-08 -1.98818e-08 0)
(-3.95056e-08 -1.98926e-08 0)
(-3.74325e-08 -1.98948e-08 0)
(-3.54932e-08 -1.98864e-08 0)
(-3.3712e-08 -1.98708e-08 0)
(-3.20194e-08 -1.98339e-08 0)
(-3.03182e-08 -1.97835e-08 0)
(-2.86241e-08 -1.97577e-08 0)
(-2.70373e-08 -1.97748e-08 0)
(-2.55927e-08 -1.97991e-08 0)
(-2.42326e-08 -1.97896e-08 0)
(-2.29176e-08 -1.97545e-08 0)
(-2.16664e-08 -1.97311e-08 0)
(-2.04752e-08 -1.97303e-08 0)
(-1.92856e-08 -1.97299e-08 0)
(-1.8077e-08 -1.97158e-08 0)
(-1.69184e-08 -1.97006e-08 0)
(-1.58762e-08 -1.96956e-08 0)
(-1.49191e-08 -1.96912e-08 0)
(-1.39692e-08 -1.96772e-08 0)
(-1.30134e-08 -1.96642e-08 0)
(-1.21015e-08 -1.9667e-08 0)
(-1.12436e-08 -1.9678e-08 0)
(-1.03826e-08 -1.96744e-08 0)
(-9.48327e-09 -1.96504e-08 0)
(-8.59593e-09 -1.96273e-08 0)
(-7.78939e-09 -1.96263e-08 0)
(-7.05336e-09 -1.96431e-08 0)
(-6.30964e-09 -1.96561e-08 0)
(-5.5103e-09 -1.96525e-08 0)
(-4.68575e-09 -1.96388e-08 0)
(-3.89005e-09 -1.96302e-08 0)
(-3.13177e-09 -1.96346e-08 0)
(-2.37914e-09 -1.9648e-08 0)
(-1.61347e-09 -1.96605e-08 0)
(-8.48404e-10 -1.96643e-08 0)
(-9.8089e-11 -1.96591e-08 0)
(6.47892e-10 -1.96523e-08 0)
(1.40653e-09 -1.96534e-08 0)
(2.17475e-09 -1.96663e-08 0)
(2.93846e-09 -1.96848e-08 0)
(3.70158e-09 -1.96973e-08 0)
(4.48593e-09 -1.96967e-08 0)
(5.2971e-09 -1.96874e-08 0)
(6.108e-09 -1.96815e-08 0)
(6.89166e-09 -1.96873e-08 0)
(7.66461e-09 -1.97008e-08 0)
(8.47986e-09 -1.97098e-08 0)
(9.37061e-09 -1.97084e-08 0)
(1.03119e-08 -1.97032e-08 0)
(1.12501e-08 -1.97048e-08 0)
(1.21667e-08 -1.97131e-08 0)
(1.30982e-08 -1.97179e-08 0)
(1.40905e-08 -1.97132e-08 0)
(1.51481e-08 -1.97065e-08 0)
(1.62413e-08 -1.97083e-08 0)
(1.7355e-08 -1.97179e-08 0)
(1.85093e-08 -1.97257e-08 0)
(1.97289e-08 -1.97274e-08 0)
(2.10094e-08 -1.9729e-08 0)
(2.23299e-08 -1.97363e-08 0)
(2.36906e-08 -1.9747e-08 0)
(2.51188e-08 -1.97554e-08 0)
(2.66366e-08 -1.97619e-08 0)
(2.82363e-08 -1.97706e-08 0)
(2.98953e-08 -1.97822e-08 0)
(3.16085e-08 -1.97956e-08 0)
(3.33968e-08 -1.9813e-08 0)
(3.52904e-08 -1.98384e-08 0)
(3.73119e-08 -1.98689e-08 0)
(3.94663e-08 -1.98942e-08 0)
(4.17412e-08 -1.99068e-08 0)
(4.41244e-08 -1.99104e-08 0)
(4.66285e-08 -1.99193e-08 0)
(4.92899e-08 -1.99508e-08 0)
(5.21294e-08 -2.00114e-08 0)
(5.51307e-08 -2.00824e-08 0)
(5.82841e-08 -2.01279e-08 0)
(6.16415e-08 -2.01318e-08 0)
(6.52866e-08 -2.01215e-08 0)
(6.9252e-08 -2.01374e-08 0)
(7.35089e-08 -2.01918e-08 0)
(7.80449e-08 -2.02741e-08 0)
(8.2896e-08 -2.03807e-08 0)
(8.80846e-08 -2.04999e-08 0)
(9.36019e-08 -2.05881e-08 0)
(9.94989e-08 -2.06099e-08 0)
(1.05927e-07 -2.05986e-08 0)
(1.13035e-07 -2.06321e-08 0)
(1.20862e-07 -2.07485e-08 0)
(1.29359e-07 -2.09173e-08 0)
(1.38518e-07 -2.10917e-08 0)
(1.48436e-07 -2.12546e-08 0)
(1.59269e-07 -2.14156e-08 0)
(1.71157e-07 -2.15906e-08 0)
(1.84214e-07 -2.179e-08 0)
(1.98605e-07 -2.20178e-08 0)
(2.14554e-07 -2.22732e-08 0)
(2.32265e-07 -2.25532e-08 0)
(2.51942e-07 -2.28662e-08 0)
(2.73839e-07 -2.32248e-08 0)
(2.98273e-07 -2.36365e-08 0)
(3.2566e-07 -2.41291e-08 0)
(3.56485e-07 -2.47237e-08 0)
(3.91249e-07 -2.54059e-08 0)
(4.30582e-07 -2.6199e-08 0)
(4.75299e-07 -2.71442e-08 0)
(5.26374e-07 -2.82393e-08 0)
(5.85048e-07 -2.95299e-08 0)
(6.5278e-07 -3.10913e-08 0)
(7.31263e-07 -3.29632e-08 0)
(8.22698e-07 -3.52456e-08 0)
(9.29832e-07 -3.80487e-08 0)
(1.05602e-06 -4.14493e-08 0)
(1.20553e-06 -4.5605e-08 0)
(1.38357e-06 -5.06892e-08 0)
(1.5965e-06 -5.68776e-08 0)
(1.85211e-06 -6.4467e-08 0)
(2.15971e-06 -7.38544e-08 0)
(2.53006e-06 -8.5477e-08 0)
(2.97515e-06 -9.96637e-08 0)
(3.50744e-06 -1.16456e-07 0)
(4.13879e-06 -1.35583e-07 0)
(4.87831e-06 -1.56461e-07 0)
(5.72864e-06 -1.77936e-07 0)
(6.68072e-06 -1.97782e-07 0)
(7.70709e-06 -2.12211e-07 0)
(8.75367e-06 -2.15467e-07 0)
(9.73162e-06 -1.99937e-07 0)
(1.05113e-05 -1.5655e-07 0)
(1.09226e-05 -7.60705e-08 0)
(1.07688e-05 4.72088e-08 0)
(9.86108e-06 2.10019e-07 0)
(8.08908e-06 3.89686e-07 0)
(5.51955e-06 5.33462e-07 0)
(2.59325e-06 5.39714e-07 0)
(3.53321e-07 3.05264e-07 0)
(-6.26491e-07 2.69987e-06 0)
(-5.03414e-06 4.6378e-06 0)
(-1.05012e-05 4.65843e-06 0)
(-1.52847e-05 3.5845e-06 0)
(-1.8655e-05 2.15011e-06 0)
(-2.04665e-05 7.77363e-07 0)
(-2.08889e-05 -3.27019e-07 0)
(-2.02415e-05 -1.10132e-06 0)
(-1.88728e-05 -1.56569e-06 0)
(-1.70938e-05 -1.77946e-06 0)
(-1.51491e-05 -1.81225e-06 0)
(-1.32118e-05 -1.72711e-06 0)
(-1.13922e-05 -1.57559e-06 0)
(-9.74992e-06 -1.39507e-06 0)
(-8.30767e-06 -1.20968e-06 0)
(-7.06671e-06 -1.03579e-06 0)
(-6.01336e-06 -8.7946e-07 0)
(-5.12693e-06 -7.43916e-07 0)
(-4.38584e-06 -6.29015e-07 0)
(-3.76763e-06 -5.32981e-07 0)
(-3.25177e-06 -4.53694e-07 0)
(-2.82056e-06 -3.88994e-07 0)
(-2.45896e-06 -3.36203e-07 0)
(-2.15484e-06 -2.93118e-07 0)
(-1.89788e-06 -2.57812e-07 0)
(-1.67946e-06 -2.28685e-07 0)
(-1.49293e-06 -2.04648e-07 0)
(-1.33289e-06 -1.84934e-07 0)
(-1.19465e-06 -1.68444e-07 0)
(-1.07468e-06 -1.54648e-07 0)
(-9.70227e-07 -1.43104e-07 0)
(-8.78828e-07 -1.33215e-07 0)
(-7.98498e-07 -1.24947e-07 0)
(-7.27614e-07 -1.17683e-07 0)
(-6.64702e-07 -1.11717e-07 0)
(-6.08726e-07 -1.06235e-07 0)
(-5.58862e-07 -1.01852e-07 0)
(-5.14238e-07 -9.7735e-08 0)
(-4.7411e-07 -9.42962e-08 0)
(-4.37983e-07 -9.12488e-08 0)
(-4.05414e-07 -8.85309e-08 0)
(-3.75933e-07 -8.63444e-08 0)
(-3.49145e-07 -8.42495e-08 0)
(-3.24767e-07 -8.22491e-08 0)
(-3.02556e-07 -8.06331e-08 0)
(-2.82208e-07 -7.92124e-08 0)
(-2.6359e-07 -7.78209e-08 0)
(-2.46659e-07 -7.66069e-08 0)
(-2.31096e-07 -7.55295e-08 0)
(-2.16598e-07 -7.44904e-08 0)
(-2.03198e-07 -7.36002e-08 0)
(-1.90887e-07 -7.29627e-08 0)
(-1.79396e-07 -7.23792e-08 0)
(-1.6861e-07 -7.17034e-08 0)
(-1.58688e-07 -7.10319e-08 0)
(-1.49631e-07 -7.0438e-08 0)
(-1.41192e-07 -6.98805e-08 0)
(-1.33234e-07 -6.93773e-08 0)
(-1.25782e-07 -6.90245e-08 0)
(-1.18788e-07 -6.87844e-08 0)
(-1.12151e-07 -6.84873e-08 0)
(-1.05925e-07 -6.80843e-08 0)
(-1.00211e-07 -6.77007e-08 0)
(-9.49178e-08 -6.74167e-08 0)
(-8.9845e-08 -6.71877e-08 0)
(-8.49617e-08 -6.69812e-08 0)
(-8.03877e-08 -6.68199e-08 0)
(-7.61369e-08 -6.66776e-08 0)
(-7.20819e-08 -6.64783e-08 0)
(-6.8159e-08 -6.62271e-08 0)
(-6.44227e-08 -6.6022e-08 0)
(-6.08891e-08 -6.59131e-08 0)
(-5.74836e-08 -6.58334e-08 0)
(-5.41887e-08 -6.57158e-08 0)
(-5.10939e-08 -6.55849e-08 0)
(-4.82339e-08 -6.54899e-08 0)
(-4.54919e-08 -6.54097e-08 0)
(-4.2738e-08 -6.52959e-08 0)
(-4.00014e-08 -6.51663e-08 0)
(-3.74106e-08 -6.50792e-08 0)
(-3.50023e-08 -6.50376e-08 0)
(-3.26958e-08 -6.4984e-08 0)
(-3.04355e-08 -6.48945e-08 0)
(-2.82543e-08 -6.48165e-08 0)
(-2.61733e-08 -6.47894e-08 0)
(-2.41273e-08 -6.47773e-08 0)
(-2.20482e-08 -6.47209e-08 0)
(-1.99747e-08 -6.46276e-08 0)
(-1.80093e-08 -6.45636e-08 0)
(-1.6179e-08 -6.45634e-08 0)
(-1.43984e-08 -6.4589e-08 0)
(-1.25761e-08 -6.45856e-08 0)
(-1.071e-08 -6.45482e-08 0)
(-8.86021e-09 -6.45139e-08 0)
(-7.06367e-09 -6.45087e-08 0)
(-5.3065e-09 -6.45243e-08 0)
(-3.56277e-09 -6.45419e-08 0)
(-1.82576e-09 -6.45573e-08 0)
(-9.49211e-11 -6.45737e-08 0)
(1.64198e-09 -6.45878e-08 0)
(3.39544e-09 -6.45959e-08 0)
(5.15468e-09 -6.46086e-08 0)
(6.90205e-09 -6.46423e-08 0)
(8.64614e-09 -6.46944e-08 0)
(1.04225e-08 -6.47381e-08 0)
(1.2252e-08 -6.47516e-08 0)
(1.41101e-08 -6.47474e-08 0)
(1.59568e-08 -6.47622e-08 0)
(1.77944e-08 -6.48138e-08 0)
(1.96795e-08 -6.48784e-08 0)
(2.16649e-08 -6.4917e-08 0)
(2.37413e-08 -6.49223e-08 0)
(2.58531e-08 -6.49279e-08 0)
(2.79709e-08 -6.49661e-08 0)
(3.01304e-08 -6.50283e-08 0)
(3.23885e-08 -6.50798e-08 0)
(3.47573e-08 -6.51074e-08 0)
(3.72011e-08 -6.51353e-08 0)
(3.96963e-08 -6.51895e-08 0)
(4.22698e-08 -6.52635e-08 0)
(4.49675e-08 -6.53336e-08 0)
(4.7802e-08 -6.53966e-08 0)
(5.07493e-08 -6.5473e-08 0)
(5.37938e-08 -6.55744e-08 0)
(5.6955e-08 -6.56875e-08 0)
(6.0267e-08 -6.57972e-08 0)
(6.37467e-08 -6.59097e-08 0)
(6.73928e-08 -6.60425e-08 0)
(7.12046e-08 -6.62003e-08 0)
(7.51925e-08 -6.6376e-08 0)
(7.93787e-08 -6.65665e-08 0)
(8.3796e-08 -6.67731e-08 0)
(8.84814e-08 -6.69941e-08 0)
(9.34576e-08 -6.72277e-08 0)
(9.87201e-08 -6.74762e-08 0)
(1.04256e-07 -6.77378e-08 0)
(1.10077e-07 -6.80063e-08 0)
(1.16236e-07 -6.82981e-08 0)
(1.22805e-07 -6.8658e-08 0)
(1.29843e-07 -6.91027e-08 0)
(1.3737e-07 -6.9575e-08 0)
(1.45398e-07 -7.00048e-08 0)
(1.53962e-07 -7.04028e-08 0)
(1.63117e-07 -7.08422e-08 0)
(1.72909e-07 -7.13638e-08 0)
(1.8338e-07 -7.19673e-08 0)
(1.94635e-07 -7.2685e-08 0)
(2.06826e-07 -7.35547e-08 0)
(2.20032e-07 -7.45139e-08 0)
(2.34239e-07 -7.54358e-08 0)
(2.49485e-07 -7.62966e-08 0)
(2.65975e-07 -7.7228e-08 0)
(2.83988e-07 -7.83816e-08 0)
(3.03696e-07 -7.97974e-08 0)
(3.25165e-07 -8.14166e-08 0)
(3.48514e-07 -8.3179e-08 0)
(3.74004e-07 -8.50956e-08 0)
(4.01964e-07 -8.72381e-08 0)
(4.32711e-07 -8.96622e-08 0)
(4.66605e-07 -9.23924e-08 0)
(5.04097e-07 -9.54754e-08 0)
(5.45675e-07 -9.89751e-08 0)
(5.9186e-07 -1.02961e-07 0)
(6.43284e-07 -1.07524e-07 0)
(7.00675e-07 -1.12757e-07 0)
(7.64956e-07 -1.18797e-07 0)
(8.37305e-07 -1.25836e-07 0)
(9.18994e-07 -1.34047e-07 0)
(1.01149e-06 -1.43653e-07 0)
(1.1167e-06 -1.54967e-07 0)
(1.23689e-06 -1.68302e-07 0)
(1.37482e-06 -1.84123e-07 0)
(1.53393e-06 -2.03076e-07 0)
(1.71829e-06 -2.25829e-07 0)
(1.93297e-06 -2.53286e-07 0)
(2.18433e-06 -2.86651e-07 0)
(2.48012e-06 -3.27293e-07 0)
(2.82993e-06 -3.76966e-07 0)
(3.2456e-06 -4.37757e-07 0)
(3.74134e-06 -5.11929e-07 0)
(4.33403e-06 -6.02072e-07 0)
(5.04365e-06 -7.1093e-07 0)
(5.8931e-06 -8.41111e-07 0)
(6.90724e-06 -9.94445e-07 0)
(8.11082e-06 -1.17063e-06 0)
(9.52522e-06 -1.36571e-06 0)
(1.11635e-05 -1.57028e-06 0)
(1.30225e-05 -1.76691e-06 0)
(1.50719e-05 -1.92707e-06 0)
(1.72405e-05 -2.00831e-06 0)
(1.93999e-05 -1.95307e-06 0)
(2.13516e-05 -1.69117e-06 0)
(2.28194e-05 -1.14869e-06 0)
(2.34567e-05 -2.65979e-07 0)
(2.28837e-05 9.69642e-07 0)
(2.07623e-05 2.4753e-06 0)
(1.69309e-05 4.00686e-06 0)
(1.15759e-05 5.08419e-06 0)
(5.57817e-06 4.92764e-06 0)
(7.39357e-07 2.62674e-06 0)
(-7.66528e-07 5.82457e-06 0)
(-5.98525e-06 1.03687e-05 0)
(-1.2408e-05 1.05278e-05 0)
(-1.81592e-05 8.3073e-06 0)
(-2.23371e-05 5.205e-06 0)
(-2.47301e-05 2.14661e-06 0)
(-2.54839e-05 -3.864e-07 0)
(-2.49344e-05 -2.21966e-06 0)
(-2.34713e-05 -3.36926e-06 0)
(-2.14565e-05 -3.94577e-06 0)
(-1.91844e-05 -4.09483e-06 0)
(-1.68715e-05 -3.95614e-06 0)
(-1.46616e-05 -3.64728e-06 0)
(-1.26377e-05 -3.25511e-06 0)
(-1.08394e-05 -2.83994e-06 0)
(-9.27501e-06 -2.44037e-06 0)
(-7.93362e-06 -2.07608e-06 0)
(-6.79556e-06 -1.75658e-06 0)
(-5.83624e-06 -1.48338e-06 0)
(-5.03028e-06 -1.25333e-06 0)
(-4.35401e-06 -1.06213e-06 0)
(-3.78593e-06 -9.04288e-07 0)
(-3.30769e-06 -7.747e-07 0)
(-2.90378e-06 -6.6856e-07 0)
(-2.56096e-06 -5.81384e-07 0)
(-2.26884e-06 -5.09556e-07 0)
(-2.01891e-06 -4.50369e-07 0)
(-1.80391e-06 -4.0117e-07 0)
(-1.61794e-06 -3.60144e-07 0)
(-1.45648e-06 -3.25844e-07 0)
(-1.31552e-06 -2.96989e-07 0)
(-1.19208e-06 -2.72583e-07 0)
(-1.08345e-06 -2.51786e-07 0)
(-9.87487e-07 -2.33962e-07 0)
(-9.02371e-07 -2.18617e-07 0)
(-8.26618e-07 -2.05404e-07 0)
(-7.59079e-07 -1.94034e-07 0)
(-6.98488e-07 -1.84103e-07 0)
(-6.4408e-07 -1.75309e-07 0)
(-5.95033e-07 -1.67719e-07 0)
(-5.50865e-07 -1.61093e-07 0)
(-5.10851e-07 -1.55134e-07 0)
(-4.74403e-07 -1.49814e-07 0)
(-4.4131e-07 -1.45174e-07 0)
(-4.11155e-07 -1.41041e-07 0)
(-3.83509e-07 -1.37312e-07 0)
(-3.5825e-07 -1.34093e-07 0)
(-3.35133e-07 -1.31268e-07 0)
(-3.13758e-07 -1.28575e-07 0)
(-2.94027e-07 -1.26049e-07 0)
(-2.75957e-07 -1.23841e-07 0)
(-2.59269e-07 -1.21863e-07 0)
(-2.43628e-07 -1.20012e-07 0)
(-2.29033e-07 -1.1839e-07 0)
(-2.15569e-07 -1.17047e-07 0)
(-2.03103e-07 -1.15804e-07 0)
(-1.91481e-07 -1.14539e-07 0)
(-1.80692e-07 -1.1334e-07 0)
(-1.70664e-07 -1.12289e-07 0)
(-1.61172e-07 -1.11335e-07 0)
(-1.52115e-07 -1.1045e-07 0)
(-1.43635e-07 -1.09689e-07 0)
(-1.35816e-07 -1.09031e-07 0)
(-1.2852e-07 -1.0836e-07 0)
(-1.21592e-07 -1.07658e-07 0)
(-1.15034e-07 -1.07043e-07 0)
(-1.08865e-07 -1.06574e-07 0)
(-1.0299e-07 -1.06159e-07 0)
(-9.73353e-08 -1.05711e-07 0)
(-9.19586e-08 -1.05261e-07 0)
(-8.69179e-08 -1.04867e-07 0)
(-8.21365e-08 -1.04503e-07 0)
(-7.75077e-08 -1.04136e-07 0)
(-7.30565e-08 -1.03811e-07 0)
(-6.8871e-08 -1.03581e-07 0)
(-6.49246e-08 -1.03397e-07 0)
(-6.10892e-08 -1.0316e-07 0)
(-5.73143e-08 -1.02861e-07 0)
(-5.36764e-08 -1.02594e-07 0)
(-5.02366e-08 -1.02417e-07 0)
(-4.69478e-08 -1.02278e-07 0)
(-4.37447e-08 -1.02114e-07 0)
(-4.06478e-08 -1.01942e-07 0)
(-3.77027e-08 -1.01811e-07 0)
(-3.48638e-08 -1.01714e-07 0)
(-3.20261e-08 -1.01597e-07 0)
(-2.91681e-08 -1.01446e-07 0)
(-2.63866e-08 -1.01315e-07 0)
(-2.37663e-08 -1.01252e-07 0)
(-2.12687e-08 -1.01233e-07 0)
(-1.87837e-08 -1.01203e-07 0)
(-1.62573e-08 -1.01143e-07 0)
(-1.37257e-08 -1.0108e-07 0)
(-1.12422e-08 -1.01045e-07 0)
(-8.81442e-09 -1.01037e-07 0)
(-6.42006e-09 -1.01043e-07 0)
(-4.04687e-09 -1.01058e-07 0)
(-1.69118e-09 -1.01085e-07 0)
(6.64465e-10 -1.01118e-07 0)
(3.04247e-09 -1.01145e-07 0)
(5.43849e-09 -1.01167e-07 0)
(7.82303e-09 -1.01204e-07 0)
(1.01859e-08 -1.01267e-07 0)
(1.25632e-08 -1.01342e-07 0)
(1.50026e-08 -1.01403e-07 0)
(1.75047e-08 -1.01443e-07 0)
(2.00219e-08 -1.01487e-07 0)
(2.25221e-08 -1.0156e-07 0)
(2.50429e-08 -1.01657e-07 0)
(2.76599e-08 -1.01746e-07 0)
(3.04041e-08 -1.0181e-07 0)
(3.32289e-08 -1.01867e-07 0)
(3.60733e-08 -1.01947e-07 0)
(3.89436e-08 -1.02053e-07 0)
(4.19086e-08 -1.02162e-07 0)
(4.50184e-08 -1.02261e-07 0)
(4.82537e-08 -1.02364e-07 0)
(5.15685e-08 -1.02496e-07 0)
(5.49632e-08 -1.02658e-07 0)
(5.84861e-08 -1.02827e-07 0)
(6.21735e-08 -1.02989e-07 0)
(6.60166e-08 -1.03163e-07 0)
(6.99963e-08 -1.03377e-07 0)
(7.41252e-08 -1.03634e-07 0)
(7.84389e-08 -1.03916e-07 0)
(8.29594e-08 -1.04209e-07 0)
(8.76881e-08 -1.04518e-07 0)
(9.26301e-08 -1.04857e-07 0)
(9.78049e-08 -1.05237e-07 0)
(1.03236e-07 -1.05663e-07 0)
(1.08947e-07 -1.0613e-07 0)
(1.1497e-07 -1.0663e-07 0)
(1.21341e-07 -1.07155e-07 0)
(1.28085e-07 -1.07722e-07 0)
(1.35224e-07 -1.08355e-07 0)
(1.4278e-07 -1.09053e-07 0)
(1.5077e-07 -1.09789e-07 0)
(1.59199e-07 -1.10544e-07 0)
(1.68113e-07 -1.11349e-07 0)
(1.7763e-07 -1.12262e-07 0)
(1.87871e-07 -1.13305e-07 0)
(1.98873e-07 -1.14446e-07 0)
(2.10617e-07 -1.15655e-07 0)
(2.23131e-07 -1.16948e-07 0)
(2.36498e-07 -1.18348e-07 0)
(2.50779e-07 -1.19846e-07 0)
(2.66057e-07 -1.21446e-07 0)
(2.82531e-07 -1.23237e-07 0)
(3.00435e-07 -1.25329e-07 0)
(3.1988e-07 -1.27734e-07 0)
(3.4087e-07 -1.30354e-07 0)
(3.63494e-07 -1.33118e-07 0)
(3.88004e-07 -1.36092e-07 0)
(4.14699e-07 -1.39432e-07 0)
(4.43829e-07 -1.43236e-07 0)
(4.75622e-07 -1.4751e-07 0)
(5.10357e-07 -1.52275e-07 0)
(5.48424e-07 -1.57632e-07 0)
(5.90286e-07 -1.63694e-07 0)
(6.36434e-07 -1.70535e-07 0)
(6.8743e-07 -1.78265e-07 0)
(7.43924e-07 -1.87044e-07 0)
(8.06643e-07 -1.97056e-07 0)
(8.76465e-07 -2.08548e-07 0)
(9.54406e-07 -2.21763e-07 0)
(1.04166e-06 -2.36944e-07 0)
(1.13974e-06 -2.54501e-07 0)
(1.25038e-06 -2.7497e-07 0)
(1.37557e-06 -2.98931e-07 0)
(1.51788e-06 -3.27118e-07 0)
(1.68031e-06 -3.60416e-07 0)
(1.86647e-06 -3.99909e-07 0)
(2.08085e-06 -4.47066e-07 0)
(2.32884e-06 -5.03655e-07 0)
(2.61701e-06 -5.71828e-07 0)
(2.95354e-06 -6.54366e-07 0)
(3.34841e-06 -7.54631e-07 0)
(3.81379e-06 -8.76645e-07 0)
(4.36463e-06 -1.02527e-06 0)
(5.01878e-06 -1.20607e-06 0)
(5.79709e-06 -1.42489e-06 0)
(6.72357e-06 -1.68739e-06 0)
(7.82492e-06 -1.99832e-06 0)
(9.12948e-06 -2.36014e-06 0)
(1.06645e-05 -2.77033e-06 0)
(1.24517e-05 -3.21757e-06 0)
(1.45001e-05 -3.67698e-06 0)
(1.67969e-05 -4.10435e-06 0)
(1.92941e-05 -4.43001e-06 0)
(2.18929e-05 -4.55418e-06 0)
(2.44268e-05 -4.34589e-06 0)
(2.66476e-05 -3.65096e-06 0)
(2.82225e-05 -2.31502e-06 0)
(2.87478e-05 -2.26093e-07 0)
(2.77971e-05 2.61413e-06 0)
(2.5013e-05 5.98911e-06 0)
(2.02581e-05 9.34272e-06 0)
(1.37923e-05 1.16458e-05 0)
(6.656e-06 1.12954e-05 0)
(8.55754e-07 6.18102e-06 0)
(-7.0876e-07 9.1638e-06 0)
(-5.68931e-06 1.63938e-05 0)
(-1.18803e-05 1.67667e-05 0)
(-1.75459e-05 1.34399e-05 0)
(-2.17869e-05 8.66526e-06 0)
(-2.43614e-05 3.87145e-06 0)
(-2.5363e-05 -1.71008e-07 0)
(-2.50778e-05 -3.15933e-06 0)
(-2.38566e-05 -5.08819e-06 0)
(-2.20385e-05 -6.10981e-06 0)
(-1.99094e-05 -6.4392e-06 0)
(-1.76861e-05 -6.29148e-06 0)
(-1.55189e-05 -5.85126e-06 0)
(-1.35001e-05 -5.25965e-06 0)
(-1.16794e-05 -4.61654e-06 0)
(-1.00745e-05 -3.98454e-06 0)
(-8.68174e-06 -3.40118e-06 0)
(-7.48679e-06 -2.88379e-06 0)
(-6.46898e-06 -2.43731e-06 0)
(-5.60579e-06 -2.05899e-06 0)
(-4.87521e-06 -1.74261e-06 0)
(-4.25674e-06 -1.47997e-06 0)
(-3.73255e-06 -1.26322e-06 0)
(-3.28706e-06 -1.08439e-06 0)
(-2.90699e-06 -9.36971e-07 0)
(-2.58168e-06 -8.15359e-07 0)
(-2.302e-06 -7.14653e-07 0)
(-2.06045e-06 -6.30871e-07 0)
(-1.85102e-06 -5.60822e-07 0)
(-1.66858e-06 -5.02144e-07 0)
(-1.50904e-06 -4.52519e-07 0)
(-1.36892e-06 -4.10613e-07 0)
(-1.24534e-06 -3.74752e-07 0)
(-1.136e-06 -3.44175e-07 0)
(-1.03884e-06 -3.17673e-07 0)
(-9.52351e-07 -2.95107e-07 0)
(-8.75059e-07 -2.75282e-07 0)
(-8.05599e-07 -2.58142e-07 0)
(-7.43242e-07 -2.43046e-07 0)
(-6.87165e-07 -2.29865e-07 0)
(-6.36287e-07 -2.18428e-07 0)
(-5.90074e-07 -2.08171e-07 0)
(-5.48246e-07 -1.9903e-07 0)
(-5.10206e-07 -1.90978e-07 0)
(-4.75388e-07 -1.83767e-07 0)
(-4.43594e-07 -1.77342e-07 0)
(-4.14572e-07 -1.71704e-07 0)
(-3.87818e-07 -1.66611e-07 0)
(-3.63053e-07 -1.61959e-07 0)
(-3.40289e-07 -1.5783e-07 0)
(-3.19371e-07 -1.54142e-07 0)
(-2.99965e-07 -1.5067e-07 0)
(-2.81916e-07 -1.4744e-07 0)
(-2.65214e-07 -1.44607e-07 0)
(-2.49718e-07 -1.42126e-07 0)
(-2.35222e-07 -1.39853e-07 0)
(-2.21699e-07 -1.37768e-07 0)
(-2.09172e-07 -1.35887e-07 0)
(-1.97489e-07 -1.34109e-07 0)
(-1.86458e-07 -1.32366e-07 0)
(-1.76064e-07 -1.30772e-07 0)
(-1.6636e-07 -1.29444e-07 0)
(-1.57267e-07 -1.28295e-07 0)
(-1.4867e-07 -1.27171e-07 0)
(-1.40571e-07 -1.2607e-07 0)
(-1.33003e-07 -1.25071e-07 0)
(-1.2587e-07 -1.24169e-07 0)
(-1.19027e-07 -1.23306e-07 0)
(-1.12461e-07 -1.22504e-07 0)
(-1.06246e-07 -1.21817e-07 0)
(-1.00373e-07 -1.21214e-07 0)
(-9.47502e-08 -1.20599e-07 0)
(-8.93572e-08 -1.19968e-07 0)
(-8.42603e-08 -1.19413e-07 0)
(-7.94586e-08 -1.18977e-07 0)
(-7.48334e-08 -1.1858e-07 0)
(-7.02951e-08 -1.18146e-07 0)
(-6.58965e-08 -1.17706e-07 0)
(-6.17279e-08 -1.17332e-07 0)
(-5.77679e-08 -1.17023e-07 0)
(-5.39259e-08 -1.16725e-07 0)
(-5.01851e-08 -1.16423e-07 0)
(-4.66061e-08 -1.16166e-07 0)
(-4.31958e-08 -1.15966e-07 0)
(-3.98586e-08 -1.15769e-07 0)
(-3.65131e-08 -1.15532e-07 0)
(-3.32022e-08 -1.15293e-07 0)
(-3.00312e-08 -1.15122e-07 0)
(-2.70247e-08 -1.15028e-07 0)
(-2.40971e-08 -1.14956e-07 0)
(-2.11591e-08 -1.14859e-07 0)
(-1.82047e-08 -1.14746e-07 0)
(-1.52829e-08 -1.14655e-07 0)
(-1.24214e-08 -1.14601e-07 0)
(-9.60719e-09 -1.14572e-07 0)
(-6.82406e-09 -1.14561e-07 0)
(-4.07084e-09 -1.1457e-07 0)
(-1.33717e-09 -1.14597e-07 0)
(1.40772e-09 -1.14629e-07 0)
(4.18277e-09 -1.14657e-07 0)
(6.96706e-09 -1.14695e-07 0)
(9.72737e-09 -1.14764e-07 0)
(1.24713e-08 -1.14859e-07 0)
(1.52513e-08 -1.14953e-07 0)
(1.81058e-08 -1.1503e-07 0)
(2.10125e-08 -1.15106e-07 0)
(2.39204e-08 -1.15214e-07 0)
(2.68234e-08 -1.15357e-07 0)
(2.97831e-08 -1.15505e-07 0)
(3.28657e-08 -1.15629e-07 0)
(3.6069e-08 -1.15739e-07 0)
(3.93328e-08 -1.15874e-07 0)
(4.26203e-08 -1.16052e-07 0)
(4.59692e-08 -1.16248e-07 0)
(4.94472e-08 -1.16433e-07 0)
(5.30757e-08 -1.16612e-07 0)
(5.682e-08 -1.16819e-07 0)
(6.06539e-08 -1.17073e-07 0)
(6.46045e-08 -1.17358e-07 0)
(6.87203e-08 -1.17651e-07 0)
(7.30146e-08 -1.17955e-07 0)
(7.74653e-08 -1.18293e-07 0)
(8.20663e-08 -1.18681e-07 0)
(8.68511e-08 -1.19115e-07 0)
(9.18628e-08 -1.19587e-07 0)
(9.71176e-08 -1.20099e-07 0)
(1.0261e-07 -1.20653e-07 0)
(1.08344e-07 -1.21253e-07 0)
(1.1434e-07 -1.21909e-07 0)
(1.20634e-07 -1.22635e-07 0)
(1.27267e-07 -1.23432e-07 0)
(1.34278e-07 -1.24289e-07 0)
(1.41686e-07 -1.25199e-07 0)
(1.495e-07 -1.26173e-07 0)
(1.57751e-07 -1.27231e-07 0)
(1.66497e-07 -1.28394e-07 0)
(1.75787e-07 -1.29674e-07 0)
(1.85623e-07 -1.31064e-07 0)
(1.96017e-07 -1.32539e-07 0)
(2.07059e-07 -1.34096e-07 0)
(2.18891e-07 -1.35783e-07 0)
(2.31599e-07 -1.3765e-07 0)
(2.45192e-07 -1.39713e-07 0)
(2.59696e-07 -1.41974e-07 0)
(2.75214e-07 -1.44472e-07 0)
(2.91851e-07 -1.4722e-07 0)
(3.09668e-07 -1.50163e-07 0)
(3.28766e-07 -1.53284e-07 0)
(3.49358e-07 -1.56705e-07 0)
(3.71695e-07 -1.60603e-07 0)
(3.95952e-07 -1.65036e-07 0)
(4.22233e-07 -1.69941e-07 0)
(4.50678e-07 -1.75293e-07 0)
(4.81534e-07 -1.81188e-07 0)
(5.15133e-07 -1.87764e-07 0)
(5.51805e-07 -1.95133e-07 0)
(5.91872e-07 -2.03391e-07 0)
(6.35753e-07 -2.12666e-07 0)
(6.83987e-07 -2.23124e-07 0)
(7.37137e-07 -2.34935e-07 0)
(7.95813e-07 -2.483e-07 0)
(8.60735e-07 -2.63474e-07 0)
(9.3271e-07 -2.80765e-07 0)
(1.01274e-06 -3.00584e-07 0)
(1.10203e-06 -3.23383e-07 0)
(1.20193e-06 -3.49624e-07 0)
(1.31401e-06 -3.79962e-07 0)
(1.44019e-06 -4.15263e-07 0)
(1.58276e-06 -4.56495e-07 0)
(1.74448e-06 -5.04896e-07 0)
(1.9287e-06 -5.62016e-07 0)
(2.1393e-06 -6.29691e-07 0)
(2.38108e-06 -7.10313e-07 0)
(2.65991e-06 -8.06874e-07 0)
(2.98275e-06 -9.22953e-07 0)
(3.35819e-06 -1.06306e-06 0)
(3.79666e-06 -1.23264e-06 0)
(4.31063e-06 -1.43808e-06 0)
(4.91507e-06 -1.68698e-06 0)
(5.62782e-06 -1.98804e-06 0)
(6.46954e-06 -2.35044e-06 0)
(7.46343e-06 -2.78281e-06 0)
(8.63437e-06 -3.29156e-06 0)
(1.00075e-05 -3.87837e-06 0)
(1.16055e-05 -4.53633e-06 0)
(1.3444e-05 -5.24402e-06 0)
(1.5524e-05 -5.9579e-06 0)
(1.78232e-05 -6.60333e-06 0)
(2.02828e-05 -7.06551e-06 0)
(2.27936e-05 -7.18358e-06 0)
(2.51821e-05 -6.75126e-06 0)
(2.71993e-05 -5.53158e-06 0)
(2.85217e-05 -3.29541e-06 0)
(2.87697e-05 1.09815e-07 0)
(2.75552e-05 4.65156e-06 0)
(2.45711e-05 9.96152e-06 0)
(1.97305e-05 1.51562e-05 0)
(1.33229e-05 1.86491e-05 0)
(6.37203e-06 1.80073e-05 0)
(7.93381e-07 9.88487e-06 0)
(-5.60758e-07 1.206e-05 0)
(-4.65217e-06 2.17246e-05 0)
(-9.85002e-06 2.24006e-05 0)
(-1.47294e-05 1.81997e-05 0)
(-1.85129e-05 1.20172e-05 0)
(-2.09579e-05 5.715e-06 0)
(-2.20988e-05 3.2191e-07 0)
(-2.21365e-05 -3.73486e-06 0)
(-2.13386e-05 -6.41662e-06 0)
(-1.99759e-05 -7.90093e-06 0)
(-1.82858e-05 -8.4544e-06 0)
(-1.64565e-05 -8.3526e-06 0)
(-1.46238e-05 -7.83743e-06 0)
(-1.28776e-05 -7.09798e-06 0)
(-1.12702e-05 -6.27031e-06 0)
(-9.82713e-06 -5.44232e-06 0)
(-8.55461e-06 -4.66733e-06 0)
(-7.44613e-06 -3.97216e-06 0)
(-6.4886e-06 -3.3664e-06 0)
(-5.66591e-06 -2.84903e-06 0)
(-4.9613e-06 -2.41321e-06 0)
(-4.3584e-06 -2.04934e-06 0)
(-3.84225e-06 -1.74709e-06 0)
(-3.3996e-06 -1.49652e-06 0)
(-3.01921e-06 -1.28898e-06 0)
(-2.69123e-06 -1.11694e-06 0)
(-2.40748e-06 -9.73851e-07 0)
(-2.16102e-06 -8.54471e-07 0)
(-1.94626e-06 -7.54526e-07 0)
(-1.75839e-06 -6.70384e-07 0)
(-1.59337e-06 -5.99228e-07 0)
(-1.448e-06 -5.38789e-07 0)
(-1.31938e-06 -4.87145e-07 0)
(-1.20519e-06 -4.42799e-07 0)
(-1.10369e-06 -4.04728e-07 0)
(-1.01298e-06 -3.71829e-07 0)
(-9.31618e-07 -3.43187e-07 0)
(-8.58574e-07 -3.18235e-07 0)
(-7.92736e-07 -2.96496e-07 0)
(-7.33513e-07 -2.77313e-07 0)
(-6.79798e-07 -2.60369e-07 0)
(-6.30811e-07 -2.45502e-07 0)
(-5.86356e-07 -2.3236e-07 0)
(-5.45919e-07 -2.20586e-07 0)
(-5.0895e-07 -2.10096e-07 0)
(-4.75173e-07 -2.0084e-07 0)
(-4.442e-07 -1.92531e-07 0)
(-4.15618e-07 -1.84944e-07 0)
(-3.89288e-07 -1.78138e-07 0)
(-3.65076e-07 -1.72124e-07 0)
(-3.42645e-07 -1.66679e-07 0)
(-3.21781e-07 -1.61667e-07 0)
(-3.02485e-07 -1.57134e-07 0)
(-2.84655e-07 -1.53055e-07 0)
(-2.68055e-07 -1.49299e-07 0)
(-2.52558e-07 -1.4585e-07 0)
(-2.38141e-07 -1.42787e-07 0)
(-2.24686e-07 -1.40049e-07 0)
(-2.12014e-07 -1.37468e-07 0)
(-2.00097e-07 -1.3501e-07 0)
(-1.8901e-07 -1.32774e-07 0)
(-1.78679e-07 -1.3079e-07 0)
(-1.68913e-07 -1.28971e-07 0)
(-1.59639e-07 -1.27285e-07 0)
(-1.50924e-07 -1.25762e-07 0)
(-1.42759e-07 -1.24379e-07 0)
(-1.35018e-07 -1.23049e-07 0)
(-1.27626e-07 -1.21757e-07 0)
(-1.20616e-07 -1.20589e-07 0)
(-1.13987e-07 -1.19577e-07 0)
(-1.0764e-07 -1.18652e-07 0)
(-1.0152e-07 -1.17747e-07 0)
(-9.57017e-08 -1.16897e-07 0)
(-9.02514e-08 -1.16154e-07 0)
(-8.50837e-08 -1.15484e-07 0)
(-8.00531e-08 -1.14818e-07 0)
(-7.51351e-08 -1.14161e-07 0)
(-7.04222e-08 -1.1358e-07 0)
(-6.59572e-08 -1.13088e-07 0)
(-6.16692e-08 -1.12628e-07 0)
(-5.74965e-08 -1.12163e-07 0)
(-5.34754e-08 -1.11735e-07 0)
(-4.96498e-08 -1.11386e-07 0)
(-4.59615e-08 -1.11083e-07 0)
(-4.23037e-08 -1.10761e-07 0)
(-3.86603e-08 -1.10415e-07 0)
(-3.51219e-08 -1.10111e-07 0)
(-3.17588e-08 -1.09896e-07 0)
(-2.85293e-08 -1.09743e-07 0)
(-2.53344e-08 -1.09593e-07 0)
(-2.21268e-08 -1.09426e-07 0)
(-1.89347e-08 -1.09268e-07 0)
(-1.57987e-08 -1.09145e-07 0)
(-1.27228e-08 -1.09056e-07 0)
(-9.69024e-09 -1.08994e-07 0)
(-6.69299e-09 -1.08963e-07 0)
(-3.72576e-09 -1.08967e-07 0)
(-7.65222e-10 -1.08988e-07 0)
(2.21708e-09 -1.09006e-07 0)
(5.21979e-09 -1.09026e-07 0)
(8.21164e-09 -1.09075e-07 0)
(1.11776e-08 -1.09169e-07 0)
(1.41513e-08 -1.09288e-07 0)
(1.71841e-08 -1.094e-07 0)
(2.02848e-08 -1.09501e-07 0)
(2.34108e-08 -1.09623e-07 0)
(2.65292e-08 -1.09794e-07 0)
(2.96719e-08 -1.09999e-07 0)
(3.29108e-08 -1.10196e-07 0)
(3.62787e-08 -1.10369e-07 0)
(3.97373e-08 -1.10548e-07 0)
(4.32334e-08 -1.10775e-07 0)
(4.67723e-08 -1.11051e-07 0)
(5.04144e-08 -1.11341e-07 0)
(5.42045e-08 -1.11623e-07 0)
(5.8129e-08 -1.11917e-07 0)
(6.21538e-08 -1.12256e-07 0)
(6.62832e-08 -1.12645e-07 0)
(7.05602e-08 -1.1306e-07 0)
(7.50173e-08 -1.13493e-07 0)
(7.96489e-08 -1.13963e-07 0)
(8.44384e-08 -1.14495e-07 0)
(8.9397e-08 -1.15085e-07 0)
(9.45615e-08 -1.15722e-07 0)
(9.99663e-08 -1.16407e-07 0)
(1.05627e-07 -1.17154e-07 0)
(1.11548e-07 -1.17973e-07 0)
(1.1773e-07 -1.18864e-07 0)
(1.24192e-07 -1.1983e-07 0)
(1.30968e-07 -1.20879e-07 0)
(1.38112e-07 -1.22017e-07 0)
(1.45668e-07 -1.23251e-07 0)
(1.53657e-07 -1.24593e-07 0)
(1.62088e-07 -1.26043e-07 0)
(1.70981e-07 -1.27591e-07 0)
(1.80378e-07 -1.29242e-07 0)
(1.90334e-07 -1.3105e-07 0)
(2.009e-07 -1.33064e-07 0)
(2.12128e-07 -1.35269e-07 0)
(2.24077e-07 -1.37618e-07 0)
(2.36829e-07 -1.40117e-07 0)
(2.50471e-07 -1.4283e-07 0)
(2.65046e-07 -1.45801e-07 0)
(2.80578e-07 -1.49042e-07 0)
(2.97162e-07 -1.52608e-07 0)
(3.14975e-07 -1.56583e-07 0)
(3.34164e-07 -1.60983e-07 0)
(3.54782e-07 -1.65753e-07 0)
(3.76904e-07 -1.70898e-07 0)
(4.00743e-07 -1.76541e-07 0)
(4.2658e-07 -1.82838e-07 0)
(4.54631e-07 -1.89885e-07 0)
(4.85043e-07 -1.97722e-07 0)
(5.18018e-07 -2.06401e-07 0)
(5.5386e-07 -2.16042e-07 0)
(5.92927e-07 -2.2682e-07 0)
(6.35584e-07 -2.38898e-07 0)
(6.82258e-07 -2.52438e-07 0)
(7.33489e-07 -2.67667e-07 0)
(7.89869e-07 -2.84861e-07 0)
(8.52033e-07 -3.04319e-07 0)
(9.20715e-07 -3.26418e-07 0)
(9.96726e-07 -3.51589e-07 0)
(1.08107e-06 -3.80348e-07 0)
(1.17501e-06 -4.13356e-07 0)
(1.27993e-06 -4.5137e-07 0)
(1.39735e-06 -4.95314e-07 0)
(1.52923e-06 -5.46361e-07 0)
(1.67782e-06 -6.05883e-07 0)
(1.84583e-06 -6.7559e-07 0)
(2.03654e-06 -7.57667e-07 0)
(2.25374e-06 -8.54719e-07 0)
(2.50194e-06 -9.69993e-07 0)
(2.78674e-06 -1.10759e-06 0)
(3.11466e-06 -1.27246e-06 0)
(3.49361e-06 -1.47072e-06 0)
(3.93317e-06 -1.70973e-06 0)
(4.44451e-06 -1.9981e-06 0)
(5.04063e-06 -2.34569e-06 0)
(5.73664e-06 -2.76345e-06 0)
(6.54969e-06 -3.26279e-06 0)
(7.49858e-06 -3.85423e-06 0)
(8.60262e-06 -4.54486e-06 0)
(9.87986e-06 -5.33455e-06 0)
(1.13445e-05 -6.21062e-06 0)
(1.30028e-05 -7.14036e-06 0)
(1.48466e-05 -8.06105e-06 0)
(1.6846e-05 -8.86872e-06 0)
(1.89387e-05 -9.40713e-06 0)
(2.10199e-05 -9.46108e-06 0)
(2.29325e-05 -8.76011e-06 0)
(2.44605e-05 -6.99985e-06 0)
(2.5334e-05 -3.89451e-06 0)
(2.52474e-05 7.31351e-07 0)
(2.39011e-05 6.80396e-06 0)