/*--------------------------------*- C++ -*----------------------------------*\
| =========                 |                                                 |
| \\      /  F ield         | OpenFOAM: The Open Source CFD Toolbox           |
|  \\    /   O peration     | Version:  2412                                  |
|   \\  /    A nd           | Website:  www.openfoam.com                      |
|    \\/     M anipulation  |                                                 |
\*---------------------------------------------------------------------------*/
FoamFile
{
    version     2.0;
    format      ascii;
    arch        "LSB;label=32;scalar=64";
    class       volScalarField;
    location    "400";
    object      p;
}
// * * * * * * * * * * * * * * * * * * * * * * * * * * * * * * * * * * * * * //

dimensions      [0 2 -2 0 0 0 0];

internalField   nonuniform List<scalar> 
40000
(
0
-2.36304e-06
-3.62888e-06
-3.03366e-06
-3.82214e-07
4.20358e-06
1.04477e-05
1.80131e-05
2.65537e-05
3.57611e-05
4.53457e-05
5.5079e-05
6.47615e-05
7.42413e-05
8.34017e-05
9.21569e-05
0.000100452
0.000108252
0.00011554
0.000122314
0.000128584
0.000134367
0.000139686
0.000144569
0.000149042
0.000153139
0.000156884
0.00016031
0.000163444
0.00016631
0.000168934
0.000171338
0.000173542
0.000175565
0.000177425
0.000179136
0.000180713
0.000182168
0.000183514
0.000184757
0.000185913
0.000186982
0.000187978
0.000188904
0.000189767
0.000190574
0.000191327
0.00019203
0.000192689
0.000193309
0.00019389
0.000194435
0.000194948
0.000195431
0.000195885
0.000196314
0.000196719
0.0001971
0.000197461
0.000197801
0.000198122
0.000198427
0.000198715
0.000198987
0.000199245
0.000199488
0.000199719
0.000199937
0.000200144
0.000200339
0.000200524
0.000200698
0.000200863
0.000201018
0.000201165
0.000201304
0.000201434
0.000201556
0.000201671
0.000201779
0.00020188
0.000201974
0.000202061
0.000202143
0.000202218
0.000202288
0.000202351
0.000202408
0.000202461
0.000202509
0.000202551
0.000202587
0.000202617
0.000202643
0.000202665
0.000202682
0.000202694
0.0002027
0.000202702
0.000202698
0.00020269
0.000202677
0.000202659
0.000202636
0.000202609
0.000202576
0.000202538
0.000202495
0.000202447
0.000202393
0.000202334
0.00020227
0.000202199
0.000202123
0.000202041
0.000201953
0.000201858
0.000201757
0.00020165
0.000201535
0.000201414
0.000201284
0.000201147
0.000201003
0.000200849
0.000200687
0.000200516
0.000200335
0.000200144
0.000199943
0.00019973
0.000199506
0.000199269
0.00019902
0.000198758
0.000198481
0.000198189
0.000197879
0.000197553
0.000197209
0.000196847
0.000196463
0.000196057
0.000195628
0.000195173
0.000194692
0.000194181
0.000193638
0.000193062
0.000192451
0.000191802
0.000191111
0.000190374
0.000189587
0.000188745
0.000187845
0.000186881
0.000185847
0.000184736
0.000183542
0.000182255
0.000180868
0.000179369
0.000177749
0.000175992
0.000174086
0.000172016
0.000169765
0.000167314
0.000164641
0.000161723
0.000158537
0.000155056
0.000151253
0.000147095
0.000142553
0.000137593
0.000132185
0.000126297
0.000119901
0.000112972
0.000105494
9.74567e-05
8.88645e-05
7.97374e-05
7.01162e-05
6.00663e-05
4.96829e-05
3.90969e-05
2.84776e-05
1.80405e-05
8.04629e-06
-1.19833e-06
-9.3483e-06
-1.60352e-05
-2.08984e-05
-2.36449e-05
-2.41618e-05
-2.26818e-05
-2.00431e-05
-0.000271088
-0.000273638
-0.000274677
-0.000273907
-0.000271349
-0.000267113
-0.00026142
-0.000254538
-0.000246749
-0.000238313
-0.000229475
-0.000220442
-0.00021139
-0.000202463
-0.000193775
-0.000185411
-0.000177431
-0.000169877
-0.000162772
-0.000156127
-0.000149939
-0.0001442
-0.000138894
-0.000133997
-0.000129493
-0.000125351
-0.000121548
-0.00011806
-0.000114861
-0.000111927
-0.000109236
-0.000106767
-0.0001045
-0.000102417
-0.000100501
-9.87373e-05
-9.71118e-05
-9.56113e-05
-9.4226e-05
-9.29433e-05
-9.17543e-05
-9.06536e-05
-8.96288e-05
-8.86769e-05
-8.77919e-05
-8.69639e-05
-8.61904e-05
-8.5469e-05
-8.47938e-05
-8.41608e-05
-8.35673e-05
-8.30098e-05
-8.24858e-05
-8.19935e-05
-8.15303e-05
-8.10938e-05
-8.06819e-05
-8.02934e-05
-7.99266e-05
-7.95803e-05
-7.92534e-05
-7.89448e-05
-7.86529e-05
-7.83766e-05
-7.81151e-05
-7.78679e-05
-7.76343e-05
-7.74134e-05
-7.72042e-05
-7.70063e-05
-7.68193e-05
-7.66426e-05
-7.64759e-05
-7.63186e-05
-7.61703e-05
-7.60304e-05
-7.58987e-05
-7.57749e-05
-7.56586e-05
-7.55497e-05
-7.54478e-05
-7.53528e-05
-7.52645e-05
-7.51824e-05
-7.5106e-05
-7.50354e-05
-7.49711e-05
-7.49135e-05
-7.48616e-05
-7.48144e-05
-7.47713e-05
-7.47336e-05
-7.47019e-05
-7.46759e-05
-7.46549e-05
-7.46386e-05
-7.4627e-05
-7.46204e-05
-7.46188e-05
-7.4622e-05
-7.46299e-05
-7.46427e-05
-7.46605e-05
-7.46834e-05
-7.47115e-05
-7.47447e-05
-7.4783e-05
-7.48262e-05
-7.48747e-05
-7.49287e-05
-7.49885e-05
-7.50539e-05
-7.51247e-05
-7.52012e-05
-7.52838e-05
-7.53727e-05
-7.54682e-05
-7.55702e-05
-7.56789e-05
-7.57945e-05
-7.59174e-05
-7.6048e-05
-7.61865e-05
-7.63331e-05
-7.64881e-05
-7.66518e-05
-7.68248e-05
-7.70077e-05
-7.72009e-05
-7.74047e-05
-7.76194e-05
-7.78462e-05
-7.80858e-05
-7.83387e-05
-7.86051e-05
-7.88858e-05
-7.91819e-05
-7.94948e-05
-7.98255e-05
-8.01748e-05
-8.05439e-05
-8.0934e-05
-8.13472e-05
-8.17853e-05
-8.22489e-05
-8.2739e-05
-8.32577e-05
-8.38087e-05
-8.43957e-05
-8.50211e-05
-8.56868e-05
-8.63955e-05
-8.71511e-05
-8.7958e-05
-8.88209e-05
-8.97444e-05
-9.0734e-05
-9.1796e-05
-9.29376e-05
-9.41665e-05
-9.54914e-05
-9.69213e-05
-9.84661e-05
-0.000100137
-0.000101947
-0.000103911
-0.000106044
-0.000108363
-0.000110884
-0.000113629
-0.000116619
-0.000119879
-0.000123431
-0.000127303
-0.00013152
-0.000136111
-0.000141102
-0.000146522
-0.000152393
-0.000158738
-0.000165572
-0.000172904
-0.000180734
-0.000189051
-0.000197826
-0.000207012
-0.00021654
-0.000226314
-0.000236206
-0.00024606
-0.000255681
-0.000264839
-0.000273271
-0.00028069
-0.000286796
-0.000291302
-0.000293976
-0.000294713
-0.000293509
-0.000290697
-0.00081575
-0.000818976
-0.000820285
-0.00081967
-0.000817375
-0.000813542
-0.000808381
-0.000802125
-0.000795015
-0.000787275
-0.000779123
-0.000770741
-0.000762291
-0.000753906
-0.000745694
-0.000737742
-0.000730111
-0.000722844
-0.000715972
-0.000709509
-0.00070346
-0.000697822
-0.000692586
-0.000687735
-0.000683253
-0.000679118
-0.00067531
-0.000671806
-0.000668583
-0.000665621
-0.000662899
-0.000660397
-0.000658096
-0.000655979
-0.000654032
-0.000652235
-0.00065058
-0.00064905
-0.000647639
-0.00064633
-0.000645121
-0.000643997
-0.000642953
-0.000641984
-0.000641081
-0.000640239
-0.000639454
-0.00063872
-0.000638033
-0.00063739
-0.000636788
-0.000636222
-0.00063569
-0.00063519
-0.00063472
-0.000634278
-0.000633861
-0.000633468
-0.000633097
-0.000632747
-0.000632416
-0.000632104
-0.000631808
-0.000631529
-0.000631266
-0.000631016
-0.00063078
-0.000630556
-0.000630346
-0.000630146
-0.000629958
-0.000629779
-0.000629611
-0.000629452
-0.000629303
-0.000629162
-0.000629029
-0.000628904
-0.000628787
-0.000628678
-0.000628575
-0.000628479
-0.00062839
-0.000628307
-0.000628231
-0.00062816
-0.000628095
-0.000628036
-0.000627983
-0.000627936
-0.000627894
-0.000627857
-0.000627824
-0.000627798
-0.000627776
-0.00062776
-0.000627748
-0.000627741
-0.00062774
-0.000627743
-0.000627751
-0.000627764
-0.000627782
-0.000627805
-0.000627833
-0.000627867
-0.000627905
-0.000627949
-0.000627997
-0.000628052
-0.000628111
-0.000628177
-0.000628249
-0.000628326
-0.000628409
-0.000628499
-0.000628595
-0.000628697
-0.000628807
-0.000628923
-0.000629047
-0.000629178
-0.000629318
-0.000629465
-0.000629622
-0.000629787
-0.000629961
-0.000630146
-0.00063034
-0.000630546
-0.000630763
-0.000630992
-0.000631233
-0.000631488
-0.000631757
-0.000632041
-0.00063234
-0.000632656
-0.000632991
-0.000633344
-0.000633717
-0.000634112
-0.000634529
-0.000634971
-0.00063544
-0.000635939
-0.000636467
-0.000637027
-0.000637622
-0.000638255
-0.00063893
-0.000639649
-0.000640417
-0.000641237
-0.000642115
-0.000643056
-0.000644064
-0.000645147
-0.000646311
-0.000647564
-0.000648914
-0.000650371
-0.000651945
-0.000653648
-0.000655491
-0.000657489
-0.000659658
-0.000662013
-0.000664572
-0.000667354
-0.000670378
-0.000673668
-0.000677245
-0.000681134
-0.000685358
-0.00068994
-0.000694904
-0.000700273
-0.000706064
-0.000712293
-0.000718971
-0.0007261
-0.000733673
-0.000741671
-0.00075006
-0.000758792
-0.000767794
-0.000776974
-0.00078621
-0.000795354
-0.00080423
-0.000812634
-0.000820336
-0.000827086
-0.00083263
-0.000836718
-0.000839128
-0.000839721
-0.000838248
-0.000834709
-0.00163229
-0.00163621
-0.00163795
-0.00163765
-0.00163571
-0.0016323
-0.00162765
-0.00162197
-0.00161548
-0.00160838
-0.00160086
-0.0015931
-0.00158524
-0.00157739
-0.00156967
-0.00156216
-0.0015549
-0.00154797
-0.00154138
-0.00153515
-0.0015293
-0.00152381
-0.0015187
-0.00151395
-0.00150954
-0.00150546
-0.00150169
-0.00149822
-0.00149501
-0.00149205
-0.00148933
-0.00148683
-0.00148452
-0.00148239
-0.00148043
-0.00147862
-0.00147695
-0.00147541
-0.00147399
-0.00147267
-0.00147144
-0.00147031
-0.00146925
-0.00146827
-0.00146736
-0.00146651
-0.00146572
-0.00146498
-0.00146428
-0.00146363
-0.00146302
-0.00146245
-0.00146192
-0.00146141
-0.00146094
-0.00146049
-0.00146007
-0.00145968
-0.0014593
-0.00145895
-0.00145862
-0.0014583
-0.001458
-0.00145772
-0.00145746
-0.00145721
-0.00145697
-0.00145674
-0.00145653
-0.00145633
-0.00145614
-0.00145596
-0.00145579
-0.00145563
-0.00145548
-0.00145534
-0.00145521
-0.00145508
-0.00145497
-0.00145486
-0.00145475
-0.00145466
-0.00145457
-0.00145448
-0.00145441
-0.00145434
-0.00145427
-0.00145421
-0.00145416
-0.00145411
-0.00145407
-0.00145403
-0.001454
-0.00145397
-0.00145395
-0.00145393
-0.00145392
-0.00145392
-0.00145391
-0.00145392
-0.00145392
-0.00145394
-0.00145396
-0.00145398
-0.00145401
-0.00145404
-0.00145408
-0.00145412
-0.00145417
-0.00145423
-0.00145429
-0.00145435
-0.00145442
-0.0014545
-0.00145459
-0.00145468
-0.00145477
-0.00145487
-0.00145498
-0.0014551
-0.00145523
-0.00145536
-0.0014555
-0.00145565
-0.0014558
-0.00145597
-0.00145614
-0.00145633
-0.00145653
-0.00145673
-0.00145695
-0.00145718
-0.00145742
-0.00145768
-0.00145795
-0.00145824
-0.00145854
-0.00145886
-0.00145919
-0.00145955
-0.00145993
-0.00146032
-0.00146074
-0.00146119
-0.00146166
-0.00146216
-0.0014627
-0.00146326
-0.00146386
-0.0014645
-0.00146518
-0.00146591
-0.00146669
-0.00146751
-0.0014684
-0.00146935
-0.00147037
-0.00147146
-0.00147264
-0.00147391
-0.00147527
-0.00147674
-0.00147833
-0.00148005
-0.00148191
-0.00148392
-0.0014861
-0.00148847
-0.00149103
-0.00149382
-0.00149684
-0.00150012
-0.00150368
-0.00150754
-0.00151172
-0.00151624
-0.00152112
-0.00152638
-0.00153204
-0.00153809
-0.00154455
-0.00155142
-0.00155868
-0.00156632
-0.00157429
-0.00158254
-0.00159101
-0.0015996
-0.00160819
-0.00161667
-0.00162485
-0.00163257
-0.00163961
-0.00164575
-0.00165075
-0.0016544
-0.00165644
-0.00165671
-0.00165477
-0.00165048
-0.00271722
-0.00272161
-0.00272371
-0.00272375
-0.00272218
-0.0027192
-0.00271504
-0.00270992
-0.00270403
-0.00269755
-0.00269066
-0.0026835
-0.00267622
-0.00266893
-0.00266172
-0.00265467
-0.00264783
-0.00264126
-0.002635
-0.00262905
-0.00262344
-0.00261816
-0.00261322
-0.00260861
-0.00260432
-0.00260034
-0.00259665
-0.00259323
-0.00259007
-0.00258716
-0.00258446
-0.00258198
-0.00257969
-0.00257757
-0.00257562
-0.00257381
-0.00257215
-0.00257061
-0.00256918
-0.00256786
-0.00256663
-0.00256549
-0.00256444
-0.00256345
-0.00256254
-0.00256168
-0.00256089
-0.00256014
-0.00255945
-0.00255879
-0.00255818
-0.00255761
-0.00255707
-0.00255657
-0.00255609
-0.00255564
-0.00255522
-0.00255482
-0.00255445
-0.00255409
-0.00255376
-0.00255344
-0.00255314
-0.00255286
-0.00255259
-0.00255234
-0.0025521
-0.00255188
-0.00255167
-0.00255146
-0.00255127
-0.0025511
-0.00255093
-0.00255077
-0.00255061
-0.00255047
-0.00255034
-0.00255021
-0.0025501
-0.00254998
-0.00254988
-0.00254979
-0.0025497
-0.00254961
-0.00254953
-0.00254946
-0.0025494
-0.00254934
-0.00254929
-0.00254924
-0.00254919
-0.00254916
-0.00254913
-0.0025491
-0.00254908
-0.00254906
-0.00254905
-0.00254904
-0.00254904
-0.00254904
-0.00254905
-0.00254907
-0.00254908
-0.00254911
-0.00254913
-0.00254917
-0.00254921
-0.00254925
-0.0025493
-0.00254935
-0.00254941
-0.00254948
-0.00254955
-0.00254963
-0.00254971
-0.0025498
-0.0025499
-0.00255
-0.00255011
-0.00255023
-0.00255036
-0.00255049
-0.00255063
-0.00255078
-0.00255093
-0.0025511
-0.00255128
-0.00255146
-0.00255166
-0.00255187
-0.00255209
-0.00255232
-0.00255256
-0.00255282
-0.00255309
-0.00255338
-0.00255368
-0.002554
-0.00255433
-0.00255469
-0.00255507
-0.00255547
-0.00255589
-0.00255634
-0.00255681
-0.00255732
-0.00255785
-0.00255842
-0.00255902
-0.00255966
-0.00256035
-0.00256108
-0.00256186
-0.00256269
-0.00256358
-0.00256453
-0.00256556
-0.00256665
-0.00256783
-0.0025691
-0.00257047
-0.00257194
-0.00257353
-0.00257525
-0.00257711
-0.00257911
-0.00258129
-0.00258364
-0.00258619
-0.00258895
-0.00259194
-0.00259518
-0.00259869
-0.00260248
-0.00260657
-0.00261099
-0.00261574
-0.00262084
-0.0026263
-0.00263213
-0.00263833
-0.00264489
-0.00265179
-0.00265902
-0.00266654
-0.00267428
-0.00268219
-0.00269018
-0.00269815
-0.00270596
-0.00271347
-0.00272052
-0.00272692
-0.00273247
-0.00273695
-0.00274014
-0.0027418
-0.00274171
-0.00273938
-0.00273457
-0.00406548
-0.00407008
-0.00407243
-0.00407274
-0.00407152
-0.00406896
-0.00406529
-0.0040607
-0.00405538
-0.0040495
-0.00404322
-0.00403667
-0.00402998
-0.00402325
-0.00401656
-0.00400999
-0.0040036
-0.00399743
-0.00399153
-0.0039859
-0.00398056
-0.00397554
-0.00397081
-0.00396638
-0.00396225
-0.0039584
-0.00395482
-0.0039515
-0.00394842
-0.00394557
-0.00394294
-0.0039405
-0.00393824
-0.00393616
-0.00393423
-0.00393245
-0.0039308
-0.00392927
-0.00392785
-0.00392654
-0.00392532
-0.00392419
-0.00392314
-0.00392216
-0.00392124
-0.00392039
-0.0039196
-0.00391885
-0.00391816
-0.00391751
-0.0039169
-0.00391632
-0.00391579
-0.00391528
-0.0039148
-0.00391436
-0.00391394
-0.00391354
-0.00391316
-0.00391281
-0.00391247
-0.00391216
-0.00391186
-0.00391158
-0.00391131
-0.00391106
-0.00391082
-0.0039106
-0.00391038
-0.00391018
-0.00390999
-0.00390981
-0.00390964
-0.00390948
-0.00390933
-0.00390919
-0.00390906
-0.00390893
-0.00390881
-0.0039087
-0.0039086
-0.0039085
-0.00390841
-0.00390833
-0.00390825
-0.00390818
-0.00390811
-0.00390806
-0.003908
-0.00390795
-0.00390791
-0.00390787
-0.00390784
-0.00390782
-0.00390779
-0.00390778
-0.00390777
-0.00390776
-0.00390776
-0.00390776
-0.00390777
-0.00390778
-0.0039078
-0.00390782
-0.00390785
-0.00390789
-0.00390792
-0.00390797
-0.00390802
-0.00390807
-0.00390813
-0.0039082
-0.00390827
-0.00390835
-0.00390843
-0.00390852
-0.00390862
-0.00390872
-0.00390883
-0.00390895
-0.00390907
-0.0039092
-0.00390935
-0.00390949
-0.00390965
-0.00390982
-0.00390999
-0.00391018
-0.00391038
-0.00391058
-0.0039108
-0.00391103
-0.00391128
-0.00391153
-0.00391181
-0.00391209
-0.00391239
-0.00391271
-0.00391305
-0.00391341
-0.00391379
-0.00391418
-0.00391461
-0.00391506
-0.00391553
-0.00391603
-0.00391657
-0.00391713
-0.00391774
-0.00391838
-0.00391906
-0.00391979
-0.00392057
-0.0039214
-0.00392229
-0.00392324
-0.00392426
-0.00392535
-0.00392653
-0.00392779
-0.00392915
-0.00393061
-0.00393219
-0.00393389
-0.00393573
-0.00393772
-0.00393986
-0.00394218
-0.00394469
-0.0039474
-0.00395033
-0.00395349
-0.00395691
-0.0039606
-0.00396456
-0.00396883
-0.00397341
-0.00397831
-0.00398354
-0.00398909
-0.00399498
-0.00400119
-0.00400771
-0.0040145
-0.00402152
-0.00402874
-0.00403608
-0.00404347
-0.0040508
-0.00405795
-0.00406481
-0.00407121
-0.004077
-0.00408197
-0.00408595
-0.0040887
-0.00408999
-0.0040896
-0.00408701
-0.00408195
-0.00567066
-0.00567524
-0.00567768
-0.00567821
-0.00567729
-0.00567512
-0.0056719
-0.00566783
-0.00566307
-0.00565778
-0.0056521
-0.00564615
-0.00564004
-0.00563387
-0.00562772
-0.00562166
-0.00561574
-0.00561
-0.00560448
-0.00559921
-0.00559419
-0.00558944
-0.00558496
-0.00558075
-0.00557681
-0.00557312
-0.00556969
-0.00556649
-0.00556352
-0.00556077
-0.00555821
-0.00555584
-0.00555364
-0.0055516
-0.00554972
-0.00554797
-0.00554635
-0.00554485
-0.00554346
-0.00554216
-0.00554096
-0.00553984
-0.0055388
-0.00553783
-0.00553693
-0.00553608
-0.0055353
-0.00553456
-0.00553387
-0.00553322
-0.00553261
-0.00553205
-0.00553151
-0.00553101
-0.00553053
-0.00553009
-0.00552967
-0.00552927
-0.0055289
-0.00552855
-0.00552821
-0.0055279
-0.0055276
-0.00552732
-0.00552705
-0.0055268
-0.00552657
-0.00552634
-0.00552613
-0.00552593
-0.00552574
-0.00552556
-0.00552539
-0.00552523
-0.00552508
-0.00552494
-0.0055248
-0.00552468
-0.00552456
-0.00552445
-0.00552435
-0.00552425
-0.00552416
-0.00552408
-0.005524
-0.00552393
-0.00552387
-0.00552381
-0.00552375
-0.00552371
-0.00552366
-0.00552363
-0.00552359
-0.00552357
-0.00552355
-0.00552353
-0.00552352
-0.00552351
-0.00552351
-0.00552351
-0.00552352
-0.00552353
-0.00552355
-0.00552358
-0.0055236
-0.00552364
-0.00552368
-0.00552372
-0.00552377
-0.00552382
-0.00552388
-0.00552395
-0.00552402
-0.0055241
-0.00552418
-0.00552427
-0.00552437
-0.00552447
-0.00552458
-0.0055247
-0.00552482
-0.00552495
-0.00552509
-0.00552524
-0.0055254
-0.00552557
-0.00552574
-0.00552593
-0.00552612
-0.00552633
-0.00552655
-0.00552678
-0.00552702
-0.00552728
-0.00552755
-0.00552783
-0.00552814
-0.00552845
-0.00552879
-0.00552915
-0.00552952
-0.00552992
-0.00553034
-0.00553079
-0.00553126
-0.00553176
-0.00553229
-0.00553286
-0.00553346
-0.00553409
-0.00553477
-0.0055355
-0.00553627
-0.00553709
-0.00553798
-0.00553892
-0.00553993
-0.00554101
-0.00554217
-0.00554342
-0.00554476
-0.0055462
-0.00554776
-0.00554943
-0.00555123
-0.00555318
-0.00555528
-0.00555754
-0.00555999
-0.00556262
-0.00556546
-0.00556853
-0.00557183
-0.00557537
-0.00557918
-0.00558326
-0.00558763
-0.00559229
-0.00559725
-0.0056025
-0.00560804
-0.00561387
-0.00561995
-0.00562627
-0.00563279
-0.00563946
-0.00564622
-0.00565299
-0.00565968
-0.00566619
-0.00567241
-0.00567818
-0.00568337
-0.00568779
-0.00569128
-0.00569362
-0.00569459
-0.00569398
-0.00569128
-0.00568624
-0.00752518
-0.00752955
-0.00753196
-0.00753262
-0.00753195
-0.00753012
-0.00752734
-0.00752376
-0.00751954
-0.00751483
-0.00750973
-0.00750438
-0.00749886
-0.00749326
-0.00748766
-0.00748211
-0.00747667
-0.00747139
-0.00746628
-0.00746139
-0.00745671
-0.00745227
-0.00744807
-0.00744411
-0.00744038
-0.0074369
-0.00743363
-0.00743059
-0.00742775
-0.0074251
-0.00742265
-0.00742036
-0.00741824
-0.00741627
-0.00741445
-0.00741275
-0.00741117
-0.00740971
-0.00740835
-0.00740708
-0.0074059
-0.00740481
-0.00740379
-0.00740283
-0.00740194
-0.00740111
-0.00740033
-0.00739961
-0.00739892
-0.00739829
-0.00739769
-0.00739712
-0.00739659
-0.00739609
-0.00739563
-0.00739518
-0.00739477
-0.00739437
-0.007394
-0.00739365
-0.00739332
-0.00739301
-0.00739272
-0.00739244
-0.00739217
-0.00739192
-0.00739169
-0.00739146
-0.00739125
-0.00739105
-0.00739087
-0.00739069
-0.00739052
-0.00739036
-0.00739021
-0.00739007
-0.00738994
-0.00738981
-0.0073897
-0.00738959
-0.00738948
-0.00738939
-0.0073893
-0.00738922
-0.00738914
-0.00738907
-0.007389
-0.00738894
-0.00738889
-0.00738884
-0.0073888
-0.00738876
-0.00738873
-0.00738871
-0.00738868
-0.00738867
-0.00738866
-0.00738865
-0.00738865
-0.00738865
-0.00738866
-0.00738867
-0.00738869
-0.00738871
-0.00738874
-0.00738878
-0.00738881
-0.00738886
-0.00738891
-0.00738896
-0.00738902
-0.00738909
-0.00738916
-0.00738923
-0.00738932
-0.00738941
-0.0073895
-0.00738961
-0.00738972
-0.00738983
-0.00738996
-0.00739009
-0.00739023
-0.00739037
-0.00739053
-0.0073907
-0.00739087
-0.00739105
-0.00739125
-0.00739146
-0.00739167
-0.0073919
-0.00739214
-0.0073924
-0.00739267
-0.00739295
-0.00739325
-0.00739357
-0.0073939
-0.00739425
-0.00739463
-0.00739502
-0.00739544
-0.00739588
-0.00739635
-0.00739685
-0.00739737
-0.00739793
-0.00739853
-0.00739916
-0.00739983
-0.00740054
-0.00740131
-0.00740212
-0.00740299
-0.00740392
-0.00740491
-0.00740598
-0.00740712
-0.00740834
-0.00740965
-0.00741106
-0.00741258
-0.00741421
-0.00741597
-0.00741786
-0.00741989
-0.00742209
-0.00742445
-0.00742698
-0.00742972
-0.00743265
-0.00743581
-0.00743919
-0.00744281
-0.00744668
-0.0074508
-0.00745519
-0.00745984
-0.00746475
-0.00746992
-0.00747533
-0.00748096
-0.0074868
-0.00749279
-0.00749889
-0.00750505
-0.0075112
-0.00751726
-0.00752314
-0.00752871
-0.00753387
-0.00753848
-0.00754238
-0.00754541
-0.00754738
-0.00754809
-0.00754734
-0.00754467
-0.00753985
-0.00962044
-0.00962445
-0.00962673
-0.00962745
-0.00962697
-0.00962546
-0.00962307
-0.00961996
-0.00961627
-0.00961211
-0.0096076
-0.00960283
-0.00959789
-0.00959287
-0.00958781
-0.0095828
-0.00957786
-0.00957304
-0.00956837
-0.00956387
-0.00955956
-0.00955545
-0.00955155
-0.00954786
-0.00954438
-0.00954111
-0.00953804
-0.00953517
-0.00953248
-0.00952997
-0.00952763
-0.00952545
-0.00952343
-0.00952154
-0.00951978
-0.00951815
-0.00951662
-0.00951521
-0.00951389
-0.00951266
-0.00951152
-0.00951045
-0.00950945
-0.00950852
-0.00950765
-0.00950684
-0.00950608
-0.00950536
-0.00950469
-0.00950407
-0.00950348
-0.00950292
-0.0095024
-0.00950191
-0.00950145
-0.00950101
-0.0095006
-0.00950021
-0.00949985
-0.0094995
-0.00949917
-0.00949886
-0.00949857
-0.0094983
-0.00949803
-0.00949779
-0.00949755
-0.00949733
-0.00949712
-0.00949693
-0.00949674
-0.00949656
-0.0094964
-0.00949624
-0.00949609
-0.00949595
-0.00949582
-0.00949569
-0.00949558
-0.00949547
-0.00949537
-0.00949527
-0.00949518
-0.0094951
-0.00949502
-0.00949496
-0.00949489
-0.00949483
-0.00949478
-0.00949473
-0.00949469
-0.00949465
-0.00949462
-0.0094946
-0.00949457
-0.00949456
-0.00949455
-0.00949454
-0.00949454
-0.00949454
-0.00949455
-0.00949456
-0.00949458
-0.0094946
-0.00949463
-0.00949466
-0.0094947
-0.00949475
-0.00949479
-0.00949485
-0.00949491
-0.00949497
-0.00949504
-0.00949512
-0.0094952
-0.00949529
-0.00949539
-0.00949549
-0.0094956
-0.00949571
-0.00949584
-0.00949597
-0.00949611
-0.00949625
-0.00949641
-0.00949657
-0.00949674
-0.00949693
-0.00949712
-0.00949733
-0.00949754
-0.00949777
-0.00949801
-0.00949826
-0.00949853
-0.00949881
-0.0094991
-0.00949942
-0.00949975
-0.0095001
-0.00950047
-0.00950086
-0.00950127
-0.00950171
-0.00950217
-0.00950266
-0.00950318
-0.00950373
-0.00950431
-0.00950494
-0.0095056
-0.0095063
-0.00950705
-0.00950785
-0.0095087
-0.00950961
-0.00951058
-0.00951162
-0.00951273
-0.00951392
-0.0095152
-0.00951657
-0.00951804
-0.00951962
-0.00952131
-0.00952313
-0.00952509
-0.00952719
-0.00952945
-0.00953187
-0.00953447
-0.00953726
-0.00954025
-0.00954344
-0.00954685
-0.00955048
-0.00955434
-0.00955842
-0.00956275
-0.00956729
-0.00957206
-0.00957703
-0.00958219
-0.00958751
-0.00959296
-0.00959849
-0.00960405
-0.00960959
-0.00961501
-0.00962025
-0.00962521
-0.00962977
-0.00963381
-0.00963721
-0.00963981
-0.00964146
-0.00964196
-0.00964115
-0.00963863
-0.00963419
-0.011947
-0.0119505
-0.0119526
-0.0119533
-0.011953
-0.0119517
-0.0119497
-0.011947
-0.0119439
-0.0119402
-0.0119363
-0.0119321
-0.0119277
-0.0119233
-0.0119188
-0.0119143
-0.0119099
-0.0119055
-0.0119013
-0.0118972
-0.0118933
-0.0118895
-0.011886
-0.0118826
-0.0118793
-0.0118763
-0.0118734
-0.0118708
-0.0118682
-0.0118659
-0.0118637
-0.0118616
-0.0118597
-0.0118579
-0.0118562
-0.0118547
-0.0118532
-0.0118519
-0.0118506
-0.0118494
-0.0118483
-0.0118473
-0.0118463
-0.0118454
-0.0118446
-0.0118438
-0.011843
-0.0118423
-0.0118417
-0.0118411
-0.0118405
-0.0118399
-0.0118394
-0.0118389
-0.0118385
-0.0118381
-0.0118377
-0.0118373
-0.0118369
-0.0118366
-0.0118363
-0.011836
-0.0118357
-0.0118354
-0.0118351
-0.0118349
-0.0118347
-0.0118344
-0.0118342
-0.011834
-0.0118339
-0.0118337
-0.0118335
-0.0118334
-0.0118332
-0.0118331
-0.0118329
-0.0118328
-0.0118327
-0.0118326
-0.0118325
-0.0118324
-0.0118323
-0.0118322
-0.0118322
-0.0118321
-0.011832
-0.011832
-0.0118319
-0.0118319
-0.0118318
-0.0118318
-0.0118318
-0.0118317
-0.0118317
-0.0118317
-0.0118317
-0.0118317
-0.0118317
-0.0118317
-0.0118317
-0.0118317
-0.0118317
-0.0118317
-0.0118318
-0.0118318
-0.0118318
-0.0118319
-0.0118319
-0.011832
-0.011832
-0.0118321
-0.0118322
-0.0118323
-0.0118323
-0.0118324
-0.0118325
-0.0118326
-0.0118327
-0.0118328
-0.011833
-0.0118331
-0.0118332
-0.0118334
-0.0118335
-0.0118337
-0.0118339
-0.011834
-0.0118342
-0.0118344
-0.0118346
-0.0118349
-0.0118351
-0.0118354
-0.0118356
-0.0118359
-0.0118362
-0.0118365
-0.0118368
-0.0118372
-0.0118375
-0.0118379
-0.0118383
-0.0118388
-0.0118392
-0.0118397
-0.0118402
-0.0118407
-0.0118413
-0.0118419
-0.0118426
-0.0118433
-0.011844
-0.0118448
-0.0118456
-0.0118465
-0.0118474
-0.0118484
-0.0118495
-0.0118507
-0.0118519
-0.0118532
-0.0118546
-0.0118562
-0.0118578
-0.0118595
-0.0118614
-0.0118634
-0.0118655
-0.0118678
-0.0118703
-0.0118729
-0.0118757
-0.0118787
-0.0118818
-0.0118852
-0.0118888
-0.0118925
-0.0118965
-0.0119007
-0.011905
-0.0119095
-0.0119142
-0.011919
-0.0119239
-0.0119289
-0.0119338
-0.0119387
-0.0119435
-0.0119482
-0.0119525
-0.0119565
-0.01196
-0.0119629
-0.0119651
-0.0119665
-0.0119668
-0.011966
-0.0119637
-0.0119598
-0.0144945
-0.0144976
-0.0144994
-0.0145
-0.0144998
-0.0144988
-0.0144971
-0.0144949
-0.0144922
-0.0144891
-0.0144857
-0.0144821
-0.0144783
-0.0144744
-0.0144704
-0.0144665
-0.0144626
-0.0144587
-0.0144549
-0.0144513
-0.0144477
-0.0144443
-0.0144411
-0.014438
-0.0144351
-0.0144323
-0.0144296
-0.0144272
-0.0144248
-0.0144226
-0.0144206
-0.0144187
-0.0144168
-0.0144152
-0.0144136
-0.0144121
-0.0144107
-0.0144094
-0.0144082
-0.0144071
-0.014406
-0.014405
-0.0144041
-0.0144032
-0.0144024
-0.0144017
-0.0144009
-0.0144003
-0.0143996
-0.014399
-0.0143985
-0.0143979
-0.0143974
-0.014397
-0.0143965
-0.0143961
-0.0143957
-0.0143953
-0.014395
-0.0143947
-0.0143943
-0.014394
-0.0143938
-0.0143935
-0.0143932
-0.014393
-0.0143928
-0.0143926
-0.0143923
-0.0143922
-0.014392
-0.0143918
-0.0143916
-0.0143915
-0.0143913
-0.0143912
-0.0143911
-0.014391
-0.0143908
-0.0143907
-0.0143906
-0.0143905
-0.0143905
-0.0143904
-0.0143903
-0.0143902
-0.0143902
-0.0143901
-0.0143901
-0.01439
-0.01439
-0.0143899
-0.0143899
-0.0143899
-0.0143899
-0.0143898
-0.0143898
-0.0143898
-0.0143898
-0.0143898
-0.0143898
-0.0143898
-0.0143899
-0.0143899
-0.0143899
-0.0143899
-0.01439
-0.01439
-0.0143901
-0.0143901
-0.0143902
-0.0143902
-0.0143903
-0.0143904
-0.0143905
-0.0143906
-0.0143907
-0.0143908
-0.0143909
-0.014391
-0.0143911
-0.0143912
-0.0143914
-0.0143915
-0.0143917
-0.0143918
-0.014392
-0.0143922
-0.0143924
-0.0143925
-0.0143928
-0.014393
-0.0143932
-0.0143935
-0.0143937
-0.014394
-0.0143943
-0.0143946
-0.0143949
-0.0143952
-0.0143956
-0.014396
-0.0143964
-0.0143968
-0.0143972
-0.0143977
-0.0143982
-0.0143987
-0.0143993
-0.0143999
-0.0144005
-0.0144012
-0.0144019
-0.0144027
-0.0144035
-0.0144043
-0.0144052
-0.0144062
-0.0144072
-0.0144083
-0.0144095
-0.0144108
-0.0144121
-0.0144136
-0.0144151
-0.0144168
-0.0144185
-0.0144204
-0.0144224
-0.0144246
-0.0144269
-0.0144293
-0.0144319
-0.0144346
-0.0144376
-0.0144407
-0.0144439
-0.0144474
-0.014451
-0.0144547
-0.0144587
-0.0144627
-0.0144669
-0.0144712
-0.0144755
-0.0144799
-0.0144842
-0.0144885
-0.0144927
-0.0144967
-0.0145005
-0.0145039
-0.0145069
-0.0145093
-0.0145112
-0.0145123
-0.0145125
-0.0145118
-0.0145098
-0.0145064
-0.0172524
-0.0172548
-0.0172563
-0.0172569
-0.0172567
-0.0172559
-0.0172546
-0.0172527
-0.0172505
-0.0172479
-0.017245
-0.017242
-0.0172387
-0.0172354
-0.017232
-0.0172286
-0.0172252
-0.0172218
-0.0172185
-0.0172152
-0.0172121
-0.0172091
-0.0172062
-0.0172034
-0.0172007
-0.0171982
-0.0171958
-0.0171936
-0.0171914
-0.0171894
-0.0171875
-0.0171857
-0.017184
-0.0171825
-0.017181
-0.0171796
-0.0171783
-0.0171771
-0.0171759
-0.0171749
-0.0171738
-0.0171729
-0.017172
-0.0171712
-0.0171704
-0.0171697
-0.017169
-0.0171683
-0.0171677
-0.0171671
-0.0171666
-0.0171661
-0.0171656
-0.0171651
-0.0171647
-0.0171643
-0.0171639
-0.0171635
-0.0171632
-0.0171629
-0.0171626
-0.0171623
-0.017162
-0.0171617
-0.0171615
-0.0171612
-0.017161
-0.0171608
-0.0171606
-0.0171604
-0.0171602
-0.0171601
-0.0171599
-0.0171598
-0.0171596
-0.0171595
-0.0171594
-0.0171592
-0.0171591
-0.017159
-0.0171589
-0.0171588
-0.0171587
-0.0171587
-0.0171586
-0.0171585
-0.0171585
-0.0171584
-0.0171584
-0.0171583
-0.0171583
-0.0171582
-0.0171582
-0.0171582
-0.0171582
-0.0171581
-0.0171581
-0.0171581
-0.0171581
-0.0171581
-0.0171581
-0.0171581
-0.0171582
-0.0171582
-0.0171582
-0.0171582
-0.0171583
-0.0171583
-0.0171584
-0.0171584
-0.0171585
-0.0171585
-0.0171586
-0.0171587
-0.0171588
-0.0171589
-0.017159
-0.017159
-0.0171592
-0.0171593
-0.0171594
-0.0171595
-0.0171596
-0.0171598
-0.0171599
-0.0171601
-0.0171603
-0.0171604
-0.0171606
-0.0171608
-0.017161
-0.0171612
-0.0171615
-0.0171617
-0.017162
-0.0171622
-0.0171625
-0.0171628
-0.0171631
-0.0171635
-0.0171638
-0.0171642
-0.0171646
-0.017165
-0.0171654
-0.0171659
-0.0171664
-0.0171669
-0.0171674
-0.017168
-0.0171686
-0.0171692
-0.0171699
-0.0171707
-0.0171714
-0.0171723
-0.0171731
-0.0171741
-0.017175
-0.0171761
-0.0171772
-0.0171784
-0.0171797
-0.0171811
-0.0171825
-0.0171841
-0.0171857
-0.0171875
-0.0171893
-0.0171913
-0.0171934
-0.0171957
-0.0171981
-0.0172006
-0.0172033
-0.0172061
-0.017209
-0.0172121
-0.0172153
-0.0172187
-0.0172222
-0.0172258
-0.0172294
-0.0172332
-0.017237
-0.0172408
-0.0172445
-0.0172482
-0.0172518
-0.0172552
-0.0172584
-0.0172613
-0.0172638
-0.0172658
-0.0172673
-0.0172682
-0.0172683
-0.0172677
-0.017266
-0.0172633
-0.0202092
-0.0202111
-0.0202122
-0.0202127
-0.0202126
-0.020212
-0.0202109
-0.0202094
-0.0202076
-0.0202055
-0.0202032
-0.0202006
-0.0201979
-0.0201951
-0.0201923
-0.0201893
-0.0201864
-0.0201835
-0.0201807
-0.0201779
-0.0201751
-0.0201725
-0.0201699
-0.0201675
-0.0201651
-0.0201628
-0.0201607
-0.0201586
-0.0201567
-0.0201549
-0.0201531
-0.0201515
-0.02015
-0.0201485
-0.0201471
-0.0201458
-0.0201446
-0.0201435
-0.0201424
-0.0201414
-0.0201404
-0.0201396
-0.0201387
-0.0201379
-0.0201372
-0.0201365
-0.0201358
-0.0201352
-0.0201346
-0.020134
-0.0201335
-0.020133
-0.0201326
-0.0201321
-0.0201317
-0.0201313
-0.0201309
-0.0201306
-0.0201302
-0.0201299
-0.0201296
-0.0201293
-0.0201291
-0.0201288
-0.0201286
-0.0201283
-0.0201281
-0.0201279
-0.0201277
-0.0201275