/*--------------------------------*- C++ -*----------------------------------*\
| =========                 |                                                 |
| \\      /  F ield         | OpenFOAM: The Open Source CFD Toolbox           |
|  \\    /   O peration     | Version:  2412                                  |
|   \\  /    A nd           | Website:  www.openfoam.com                      |
|    \\/     M anipulation  |                                                 |
\*---------------------------------------------------------------------------*/
FoamFile
{
    version     2.0;
    format      ascii;
    arch        "LSB;label=32;scalar=64";
    class       volScalarField;
    location    "400";
    object      p_rgh;
}
// * * * * * * * * * * * * * * * * * * * * * * * * * * * * * * * * * * * * * //

dimensions      [0 2 -2 0 0 0 0];

internalField   nonuniform List<scalar> 
40000
(
6.85006e-05
6.6228e-05
6.50396e-05
6.57065e-05
6.84245e-05
7.30721e-05
7.93735e-05
8.69918e-05
9.55811e-05
0.000104833
0.000114459
0.000124229
0.000133945
0.000143456
0.000152643
0.000161423
0.000169741
0.00017756
0.000184865
0.000191655
0.000197938
0.000203732
0.000209061
0.000213953
0.000218434
0.000222538
0.000226288
0.000229719
0.000232857
0.000235726
0.000238353
0.00024076
0.000242966
0.000244991
0.000246852
0.000248564
0.000250142
0.000251598
0.000252944
0.000254188
0.000255344
0.000256413
0.000257409
0.000258336
0.000259199
0.000260006
0.000260759
0.000261462
0.000262122
0.000262741
0.000263322
0.000263867
0.00026438
0.000264863
0.000265318
0.000265747
0.000266151
0.000266533
0.000266893
0.000267233
0.000267555
0.000267859
0.000268147
0.00026842
0.000268677
0.000268921
0.000269151
0.000269369
0.000269576
0.000269771
0.000269956
0.00027013
0.000270295
0.000270451
0.000270598
0.000270736
0.000270866
0.000270989
0.000271104
0.000271212
0.000271312
0.000271406
0.000271494
0.000271575
0.000271651
0.00027172
0.000271783
0.000271841
0.000271894
0.000271942
0.000271984
0.000272019
0.00027205
0.000272076
0.000272097
0.000272114
0.000272126
0.000272133
0.000272134
0.000272131
0.000272122
0.000272109
0.000272092
0.000272069
0.000272041
0.000272008
0.000271971
0.000271928
0.00027188
0.000271826
0.000271766
0.000271702
0.000271632
0.000271556
0.000271474
0.000271385
0.000271291
0.00027119
0.000271082
0.000270968
0.000270846
0.000270717
0.00027058
0.000270435
0.000270282
0.00027012
0.000269948
0.000269767
0.000269576
0.000269375
0.000269163
0.000268938
0.000268702
0.000268453
0.000268191
0.000267914
0.000267621
0.000267312
0.000266986
0.000266642
0.000266279
0.000265895
0.000265489
0.00026506
0.000264606
0.000264125
0.000263614
0.000263071
0.000262495
0.000261883
0.000261234
0.000260543
0.000259806
0.000259019
0.000258177
0.000257277
0.000256313
0.000255279
0.000254167
0.000252972
0.000251685
0.000250298
0.000248799
0.000247177
0.000245419
0.000243512
0.000241441
0.000239188
0.000236734
0.000234058
0.000231138
0.000227948
0.000224463
0.000220654
0.00021649
0.00021194
0.000206972
0.000201554
0.000195655
0.000189246
0.000182303
0.000174808
0.000166751
0.000158138
0.000148987
0.000139339
0.000129259
0.000118843
0.00010822
9.75606e-05
8.70796e-05
7.70375e-05
6.77409e-05
5.95346e-05
5.27871e-05
4.78588e-05
4.5043e-05
4.44525e-05
4.58551e-05
4.84136e-05
0.000344185
0.000342425
0.000342073
0.000343483
0.000346636
0.000351425
0.00035763
0.000364985
0.000373209
0.000382045
0.000391248
0.000400614
0.000409967
0.000419167
0.000428101
0.000436685
0.000444861
0.00045259
0.00045985
0.000466632
0.000472939
0.000478784
0.000484181
0.000489156
0.000493729
0.00049793
0.000501782
0.000505314
0.000508549
0.000511513
0.00051423
0.000516721
0.000519006
0.000521104
0.000523032
0.000524806
0.00052644
0.000527947
0.000529338
0.000530625
0.000531817
0.000532921
0.000533948
0.000534901
0.000535788
0.000536617
0.000537391
0.000538113
0.000538789
0.000539422
0.000540016
0.000540574
0.000541098
0.00054159
0.000542054
0.00054249
0.000542902
0.000543291
0.000543658
0.000544004
0.000544331
0.000544639
0.000544931
0.000545208
0.000545469
0.000545716
0.00054595
0.000546171
0.00054638
0.000546578
0.000546765
0.000546941
0.000547108
0.000547265
0.000547414
0.000547554
0.000547685
0.000547809
0.000547925
0.000548034
0.000548136
0.000548231
0.00054832
0.000548402
0.000548478
0.000548549
0.000548613
0.000548671
0.000548722
0.00054877
0.000548813
0.00054885
0.000548882
0.000548908
0.000548929
0.000548945
0.000548957
0.000548964
0.000548965
0.000548962
0.000548954
0.000548941
0.000548924
0.000548901
0.000548873
0.000548839
0.000548801
0.000548758
0.000548709
0.000548655
0.000548595
0.00054853
0.000548459
0.000548383
0.0005483
0.000548211
0.000548116
0.000548014
0.000547905
0.000547789
0.000547667
0.000547536
0.000547398
0.000547251
0.000547096
0.000546932
0.000546759
0.000546576
0.000546383
0.000546179
0.000545965
0.000545738
0.000545498
0.000545245
0.000544979
0.000544698
0.000544402
0.000544089
0.000543759
0.000543409
0.00054304
0.00054265
0.000542237
0.000541799
0.000541335
0.000540845
0.000540326
0.000539775
0.000539188
0.000538562
0.000537896
0.000537187
0.000536431
0.000535623
0.000534759
0.000533835
0.000532843
0.000531779
0.000530635
0.000529403
0.000528074
0.000526639
0.000525088
0.00052341
0.000521591
0.000519615
0.000517468
0.000515133
0.000512592
0.000509823
0.000506804
0.00050351
0.000499917
0.000495998
0.000491725
0.000487069
0.000482002
0.000476495
0.000470523
0.000464063
0.000457098
0.000449616
0.000441615
0.000433108
0.000424118
0.000414692
0.000404898
0.000394828
0.000384608
0.000374396
0.000364382
0.000354795
0.000345897
0.000337975
0.000331326
0.000326238
0.000322943
0.000321546
0.000322054
0.000324141
0.000887708
0.00088661
0.000887181
0.00088955
0.000893478
0.00089883
0.000905397
0.000912954
0.000921261
0.000930099
0.000939255
0.000948552
0.000957831
0.000966966
0.000975854
0.000984412
0.000992583
0.00100033
0.00100763
0.00101447
0.00102085
0.00102677
0.00103226
0.00103733
0.001042
0.00104629
0.00105024
0.00105386
0.00105718
0.00106023
0.00106302
0.00106558
0.00106793
0.00107009
0.00107207
0.0010739
0.00107558
0.00107712
0.00107855
0.00107987
0.00108109
0.00108222
0.00108327
0.00108425
0.00108515
0.001086
0.00108678
0.00108752
0.00108821
0.00108885
0.00108946
0.00109002
0.00109055
0.00109105
0.00109153
0.00109197
0.00109238
0.00109278
0.00109315
0.0010935
0.00109383
0.00109414
0.00109444
0.00109472
0.00109498
0.00109523
0.00109547
0.00109569
0.0010959
0.0010961
0.00109629
0.00109647
0.00109663
0.00109679
0.00109694
0.00109708
0.00109722
0.00109734
0.00109746
0.00109757
0.00109767
0.00109777
0.00109786
0.00109794
0.00109801
0.00109808
0.00109815
0.00109821
0.00109826
0.00109831
0.00109835
0.00109839
0.00109842
0.00109845
0.00109847
0.00109849
0.0010985
0.0010985
0.00109851
0.0010985
0.00109849
0.00109848
0.00109846
0.00109844
0.00109841
0.00109838
0.00109834
0.0010983
0.00109825
0.00109819
0.00109813
0.00109807
0.001098
0.00109792
0.00109784
0.00109775
0.00109765
0.00109755
0.00109744
0.00109732
0.0010972
0.00109707
0.00109693
0.00109678
0.00109662
0.00109646
0.00109628
0.0010961
0.00109591
0.0010957
0.00109548
0.00109525
0.00109501
0.00109476
0.00109449
0.0010942
0.00109391
0.00109359
0.00109325
0.0010929
0.00109253
0.00109213
0.00109172
0.00109127
0.0010908
0.00109031
0.00108978
0.00108922
0.00108862
0.00108799
0.00108731
0.00108659
0.00108582
0.001085
0.00108412
0.00108318
0.00108216
0.00108107
0.0010799
0.00107864
0.00107728
0.00107581
0.00107422
0.0010725
0.00107063
0.0010686
0.00106639
0.00106399
0.00106138
0.00105853
0.00105542
0.00105204
0.00104835
0.00104433
0.00103995
0.00103519
0.00103002
0.00102441
0.00101834
0.0010118
0.00100476
0.000997216
0.000989177
0.000980654
0.000971674
0.000962282
0.000952546
0.000942553
0.000932419
0.000922287
0.000912329
0.000902746
0.000893763
0.000885627
0.00087859
0.0008729
0.000868778
0.000866365
0.000865912
0.000867425
0.00169021
0.00169035
0.00169222
0.0016959
0.00170099
0.00170732
0.00171469
0.00172288
0.00173168
0.0017409
0.00175035
0.00175988
0.00176935
0.00177864
0.00178767
0.00179635
0.00180465
0.00181251
0.00181992
0.00182688
0.00183337
0.0018394
0.001845
0.00185017
0.00185494
0.00185933
0.00186337
0.00186708
0.00187048
0.00187359
0.00187645
0.00187907
0.00188148
0.00188368
0.00188571
0.00188757
0.00188928
0.00189086
0.00189231
0.00189366
0.0018949
0.00189605
0.00189711
0.0018981
0.00189902
0.00189988
0.00190068
0.00190142
0.00190212
0.00190277
0.00190338
0.00190395
0.00190449
0.00190499
0.00190547
0.00190592
0.00190634
0.00190673
0.00190711
0.00190746
0.00190779
0.00190811
0.0019084
0.00190868
0.00190895
0.0019092
0.00190944
0.00190966
0.00190988
0.00191008
0.00191027
0.00191044
0.00191061
0.00191077
0.00191092
0.00191107
0.0019112
0.00191132
0.00191144
0.00191155
0.00191166
0.00191175
0.00191184
0.00191192
0.001912
0.00191207
0.00191214
0.0019122
0.00191225
0.0019123
0.00191234
0.00191238
0.00191241
0.00191244
0.00191246
0.00191247
0.00191249
0.00191249
0.00191249
0.00191249
0.00191248
0.00191247
0.00191245
0.00191243
0.0019124
0.00191237
0.00191233
0.00191228
0.00191224
0.00191218
0.00191212
0.00191206
0.00191198
0.00191191
0.00191182
0.00191173
0.00191164
0.00191153
0.00191142
0.00191131
0.00191118
0.00191105
0.00191091
0.00191076
0.0019106
0.00191044
0.00191026
0.00191008
0.00190988
0.00190968
0.00190946
0.00190923
0.00190898
0.00190873
0.00190846
0.00190817
0.00190787
0.00190755
0.00190722
0.00190686
0.00190648
0.00190608
0.00190566
0.00190522
0.00190475
0.00190425
0.00190371
0.00190314
0.00190254
0.0019019
0.00190122
0.00190049
0.00189971
0.00189888
0.00189799
0.00189703
0.001896
0.0018949
0.00189371
0.00189243
0.00189104
0.00188954
0.00188792
0.00188616
0.00188426
0.00188218
0.00187993
0.00187747
0.0018748
0.00187189
0.00186871
0.00186525
0.00186147
0.00185736
0.00185288
0.00184802
0.00184274
0.00183701
0.00183083
0.00182416
0.00181699
0.00180933
0.00180117
0.00179252
0.00178341
0.00177388
0.001764
0.00175384
0.0017435
0.00173312
0.00172285
0.00171285
0.00170334
0.00169452
0.00168663
0.00167989
0.00167453
0.00167074
0.00166894
0.00166928
0.00273964
0.00274177
0.0027455
0.00275092
0.00275758
0.00276529
0.00277384
0.00278303
0.00279267
0.00280258
0.00281261
0.00282262
0.0028325
0.00284214
0.00285146
0.00286041
0.00286893
0.002877
0.0028846
0.00289172
0.00289837
0.00290454
0.00291027
0.00291556
0.00292044
0.00292493
0.00292905
0.00293283
0.0029363
0.00293948
0.0029424
0.00294507
0.00294751
0.00294976
0.00295182
0.00295371
0.00295545
0.00295704
0.00295852
0.00295988
0.00296113
0.00296229
0.00296337
0.00296437
0.0029653
0.00296616
0.00296696
0.00296772
0.00296842
0.00296907
0.00296969
0.00297026
0.0029708
0.00297131
0.00297178
0.00297223
0.00297266
0.00297305
0.00297343
0.00297378
0.00297412
0.00297443
0.00297473
0.00297501
0.00297528
0.00297553
0.00297577
0.00297599
0.00297621
0.00297641
0.0029766
0.00297678
0.00297695
0.00297711
0.00297726
0.0029774
0.00297753
0.00297766
0.00297778
0.00297789
0.00297799
0.00297809
0.00297818
0.00297826
0.00297834
0.00297841
0.00297847
0.00297853
0.00297859
0.00297864
0.00297868
0.00297872
0.00297875
0.00297877
0.0029788
0.00297881
0.00297882
0.00297883
0.00297883
0.00297883
0.00297882
0.00297881
0.00297879
0.00297877
0.00297874
0.00297871
0.00297867
0.00297862
0.00297857
0.00297852
0.00297846
0.00297839
0.00297832
0.00297824
0.00297816
0.00297807
0.00297797
0.00297787
0.00297776
0.00297764
0.00297752
0.00297739
0.00297725
0.0029771
0.00297694
0.00297677
0.0029766
0.00297641
0.00297621
0.00297601
0.00297579
0.00297556
0.00297531
0.00297506
0.00297479
0.0029745
0.0029742
0.00297388
0.00297354
0.00297318
0.00297281
0.00297241
0.00297198
0.00297153
0.00297106
0.00297056
0.00297002
0.00296945
0.00296885
0.0029682
0.00296752
0.00296678
0.002966
0.00296516
0.00296426
0.0029633
0.00296226
0.00296114
0.00295994
0.00295865
0.00295725
0.00295573
0.00295409
0.00295231
0.00295037
0.00294826
0.00294597
0.00294347
0.00294075
0.00293778
0.00293454
0.00293101
0.00292716
0.00292296
0.00291838
0.00291341
0.00290801
0.00290215
0.00289583
0.002889
0.00288167
0.00287382
0.00286545
0.00285658
0.00284722
0.0028374
0.00282719
0.00281666
0.00280588
0.00279497
0.00278407
0.00277333
0.00276292
0.00275303
0.00274386
0.00273564
0.00272861
0.00272297
0.00271921
0.00271759
0.0040208
0.00402565
0.00403178
0.00403939
0.00404802
0.00405747
0.00406754
0.00407805
0.00408881
0.00409969
0.00411054
0.00412126
0.00413173
0.00414189
0.00415165
0.00416097
0.00416983
0.00417818
0.00418603
0.00419337
0.00420021
0.00420655
0.00421242
0.00421784
0.00422283
0.00422741
0.00423162
0.00423548
0.00423901
0.00424225
0.0042452
0.00424791
0.00425039
0.00425266
0.00425475
0.00425665
0.00425841
0.00426002
0.00426151
0.00426287
0.00426414
0.0042653
0.00426638
0.00426738
0.00426832
0.00426918
0.00426999
0.00427074
0.00427144
0.00427209
0.00427271
0.00427328
0.00427383
0.00427433
0.00427481
0.00427526
0.00427568
0.00427608
0.00427645
0.00427681
0.00427714
0.00427746
0.00427776
0.00427804
0.0042783
0.00427856
0.00427879
0.00427902
0.00427923
0.00427943
0.00427962
0.0042798
0.00427997
0.00428013
0.00428028
0.00428043
0.00428056
0.00428069
0.0042808
0.00428091
0.00428102
0.00428111
0.0042812
0.00428129
0.00428136
0.00428144
0.0042815
0.00428156
0.00428161
0.00428166
0.0042817
0.00428174
0.00428177
0.0042818
0.00428182
0.00428184
0.00428185
0.00428186
0.00428186
0.00428185
0.00428185
0.00428183
0.00428181
0.00428179
0.00428176
0.00428173
0.00428169
0.00428165
0.0042816
0.00428154
0.00428148
0.00428142
0.00428135
0.00428127
0.00428118
0.00428109
0.004281
0.00428089
0.00428078
0.00428067
0.00428054
0.00428041
0.00428027
0.00428012
0.00427996
0.0042798
0.00427962
0.00427944
0.00427924
0.00427903
0.00427881
0.00427858
0.00427834
0.00427808
0.00427781
0.00427752
0.00427722
0.0042769
0.00427656
0.00427621
0.00427583
0.00427543
0.00427501
0.00427456
0.00427408
0.00427358
0.00427305
0.00427248
0.00427187
0.00427123
0.00427054
0.0042698
0.00426902
0.00426818
0.00426728
0.00426631
0.00426527
0.00426415
0.00426295
0.00426164
0.00426023
0.00425871
0.00425705
0.00425526
0.0042533
0.00425117
0.00424886
0.00424633
0.00424357
0.00424056
0.00423726
0.00423367
0.00422975
0.00422546
0.0042208
0.00421571
0.00421019
0.00420419
0.0041977
0.00419069
0.00418315
0.00417506
0.00416642
0.00415723
0.00414751
0.00413728
0.00412659
0.00411549
0.00410406
0.00409239
0.00408059
0.0040688
0.00405717
0.00404585
0.00403505
0.00402496
0.00401582
0.00400784
0.00400153
0.00399717
0.00551567
0.00552385
0.00553286
0.00554306
0.005554
0.00556551
0.00557739
0.00558948
0.00560161
0.00561368
0.00562556
0.00563715
0.00564838
0.00565918
0.0056695
0.0056793
0.00568856
0.00569727
0.00570542
0.00571301
0.00572006
0.00572659
0.00573262
0.00573818
0.00574328
0.00574796
0.00575225
0.00575617
0.00575976
0.00576304
0.00576603
0.00576877
0.00577127
0.00577356
0.00577565
0.00577757
0.00577933
0.00578095
0.00578243
0.0057838
0.00578506
0.00578623
0.00578731
0.00578831
0.00578923
0.0057901
0.0057909
0.00579165
0.00579235
0.005793
0.00579361
0.00579419
0.00579472
0.00579523
0.0057957
0.00579615
0.00579657
0.00579697
0.00579734
0.00579769
0.00579803
0.00579834
0.00579864
0.00579892
0.00579919
0.00579944
0.00579967
0.0057999
0.00580011
0.00580031
0.0058005
0.00580068
0.00580085
0.00580101
0.00580116
0.0058013
0.00580143
0.00580156
0.00580168
0.00580179
0.00580189
0.00580199
0.00580208
0.00580216
0.00580224
0.00580231
0.00580237
0.00580243
0.00580248
0.00580253
0.00580257
0.00580261
0.00580264
0.00580267
0.00580269
0.00580271
0.00580272
0.00580273
0.00580273
0.00580272
0.00580272
0.0058027
0.00580269
0.00580266
0.00580263
0.0058026
0.00580256
0.00580252
0.00580247
0.00580241
0.00580235
0.00580229
0.00580222
0.00580214
0.00580206
0.00580197
0.00580187
0.00580177
0.00580166
0.00580154
0.00580142
0.00580128
0.00580114
0.005801
0.00580084
0.00580067
0.0058005
0.00580031
0.00580012
0.00579991
0.00579969
0.00579946
0.00579922
0.00579896
0.00579869
0.00579841
0.0057981
0.00579779
0.00579745
0.00579709
0.00579672
0.00579632
0.0057959
0.00579545
0.00579498
0.00579448
0.00579394
0.00579338
0.00579277
0.00579213
0.00579145
0.00579072
0.00578993
0.0057891
0.0057882
0.00578723
0.0057862
0.00578508
0.00578388
0.00578258
0.00578117
0.00577964
0.00577798
0.00577618
0.00577422
0.00577208
0.00576975
0.0057672
0.00576441
0.00576137
0.00575803
0.00575439
0.0057504
0.00574605
0.00574129
0.0057361
0.00573045
0.0057243
0.00571763
0.00571042
0.00570263
0.00569425
0.00568528
0.00567571
0.00566553
0.00565478
0.00564348
0.00563167
0.00561941
0.00560678
0.00559387
0.00558079
0.00556766
0.00555463
0.00554187
0.00552957
0.00551793
0.00550717
0.00549777
0.00549
0.00720365
0.00721563
0.00722792
0.00724103
0.00725457
0.00726839
0.0072823
0.00729617
0.00730987
0.0073233
0.00733635
0.00734896
0.00736106
0.00737262
0.00738358
0.00739393
0.00740365
0.00741276
0.00742124
0.00742912
0.00743641
0.00744314
0.00744933
0.00745502
0.00746024
0.00746501
0.00746937
0.00747335
0.00747698
0.00748029
0.00748331
0.00748607
0.00748858
0.00749088
0.00749297
0.00749489
0.00749665
0.00749826
0.00749974
0.0075011
0.00750235
0.00750351
0.00750458
0.00750557
0.00750649
0.00750735
0.00750814
0.00750889
0.00750958
0.00751023
0.00751083
0.0075114
0.00751193
0.00751243
0.0075129
0.00751335
0.00751377
0.00751416
0.00751453
0.00751488
0.00751521
0.00751552
0.00751582
0.0075161
0.00751636
0.00751661
0.00751685
0.00751707
0.00751728
0.00751748
0.00751767
0.00751784
0.00751801
0.00751817
0.00751832
0.00751846
0.00751859
0.00751872
0.00751884
0.00751895
0.00751905
0.00751914
0.00751923
0.00751932
0.00751939
0.00751946
0.00751953
0.00751959
0.00751964
0.00751969
0.00751973
0.00751977
0.0075198
0.00751982
0.00751985
0.00751986
0.00751987
0.00751988
0.00751988
0.00751988
0.00751987
0.00751986
0.00751984
0.00751982
0.00751979
0.00751976
0.00751972
0.00751967
0.00751962
0.00751957
0.00751951
0.00751945
0.00751937
0.0075193
0.00751921
0.00751912
0.00751903
0.00751893
0.00751882
0.0075187
0.00751858
0.00751845
0.00751831
0.00751816
0.007518
0.00751784
0.00751766
0.00751748
0.00751728
0.00751708
0.00751686
0.00751663
0.00751639
0.00751614
0.00751587
0.00751558
0.00751528
0.00751497
0.00751463
0.00751428
0.00751391
0.00751351
0.00751309
0.00751265
0.00751218
0.00751168
0.00751116
0.00751059
0.00751
0.00750936
0.00750868
0.00750796
0.00750718
0.00750635
0.00750546
0.0075045
0.00750348
0.00750237
0.00750117
0.00749988
0.00749848
0.00749696
0.00749531
0.00749351
0.00749155
0.00748941
0.00748707
0.00748452
0.00748172
0.00747865
0.00747529
0.00747161
0.00746757
0.00746315
0.00745831
0.00745301
0.00744723
0.00744093
0.00743408
0.00742664
0.00741859
0.0074099
0.00740055
0.00739053
0.00737984
0.00736849
0.00735648
0.00734384
0.00733062
0.00731688
0.00730268
0.00728811
0.00727328
0.00725831
0.00724335
0.00722854
0.00721409
0.00720019
0.00718727
0.00717557
0.00906203
0.00907815
0.00909399
0.00911025
0.00912659
0.00914289
0.009159
0.0091748
0.00919019
0.00920509
0.00921943
0.00923315
0.00924621
0.00925858
0.00927024
0.00928119
0.00929142
0.00930095
0.00930979
0.00931796
0.0093255
0.00933244
0.0093388
0.00934462
0.00934994
0.00935479
0.00935922
0.00936324
0.00936691
0.00937024
0.00937328
0.00937604
0.00937855
0.00938084
0.00938293
0.00938484
0.00938658
0.00938818
0.00938964
0.00939099
0.00939223
0.00939337
0.00939443
0.00939541
0.00939632
0.00939716
0.00939794
0.00939867
0.00939936
0.00939999
0.00940059
0.00940115
0.00940168
0.00940217
0.00940264
0.00940307
0.00940349
0.00940388
0.00940424
0.00940459
0.00940491
0.00940522
0.00940552
0.00940579
0.00940605
0.0094063
0.00940653
0.00940675
0.00940696
0.00940716
0.00940735
0.00940752
0.00940769
0.00940785
0.009408
0.00940814
0.00940827
0.00940839
0.00940851
0.00940862
0.00940872
0.00940881
0.0094089
0.00940898
0.00940906
0.00940913
0.00940919
0.00940925
0.00940931
0.00940935
0.00940939
0.00940943
0.00940946
0.00940949
0.00940951
0.00940953
0.00940954
0.00940954
0.00940955
0.00940954
0.00940953
0.00940952
0.0094095
0.00940948
0.00940945
0.00940942
0.00940938
0.00940934
0.00940929
0.00940924
0.00940918
0.00940911
0.00940904
0.00940896
0.00940888
0.00940879
0.0094087
0.0094086
0.00940849
0.00940837
0.00940825
0.00940812
0.00940798
0.00940783
0.00940768
0.00940751
0.00940734
0.00940716
0.00940697
0.00940676
0.00940655
0.00940632
0.00940608
0.00940583
0.00940556
0.00940528
0.00940498
0.00940467
0.00940434
0.00940399
0.00940362
0.00940323
0.00940282
0.00940238
0.00940192
0.00940142
0.0094009
0.00940035
0.00939976
0.00939913
0.00939846
0.00939775
0.00939698
0.00939616
0.00939529
0.00939434
0.00939333
0.00939224
0.00939105
0.00938978
0.00938839
0.00938689
0.00938525
0.00938347
0.00938152
0.00937939
0.00937706
0.00937451
0.00937171
0.00936864
0.00936526
0.00936155
0.00935747
0.00935299
0.00934808
0.00934269
0.00933679
0.00933034
0.0093233
0.00931563
0.0093073
0.00929828
0.00928853
0.00927804
0.00926679
0.00925477
0.00924199
0.00922845
0.00921418
0.00919922
0.00918361
0.00916743
0.00915075
0.00913367
0.00911631
0.0090988
0.00908131
0.00906399
0.00904723
0.00903123
0.0110665
0.0110869
0.0111065
0.011126
0.0111453
0.0111642
0.0111826
0.0112004
0.0112175
0.011234
0.0112497
0.0112645
0.0112786
0.0112918
0.0113042
0.0113158
0.0113265
0.0113365
0.0113457
0.0113542
0.0113619
0.0113691
0.0113756
0.0113815
0.011387
0.0113919
0.0113964
0.0114004
0.0114041
0.0114074
0.0114105
0.0114132
0.0114157
0.011418
0.0114201
0.011422
0.0114237
0.0114253
0.0114267
0.011428
0.0114292
0.0114304
0.0114314
0.0114324
0.0114333
0.0114341
0.0114349
0.0114356
0.0114362
0.0114369
0.0114375
0.011438
0.0114385
0.011439
0.0114395
0.0114399
0.0114403
0.0114407
0.011441
0.0114414
0.0114417
0.011442
0.0114423
0.0114426
0.0114428
0.0114431
0.0114433
0.0114435
0.0114437
0.0114439
0.0114441
0.0114443
0.0114444
0.0114446
0.0114447
0.0114449
0.011445
0.0114451
0.0114452
0.0114454
0.0114455
0.0114456
0.0114456
0.0114457
0.0114458
0.0114459
0.0114459
0.011446
0.011446
0.0114461
0.0114461
0.0114462
0.0114462
0.0114462
0.0114462
0.0114463
0.0114463
0.0114463
0.0114463
0.0114463
0.0114463
0.0114463
0.0114462
0.0114462
0.0114462
0.0114462
0.0114461
0.0114461
0.011446
0.011446
0.0114459
0.0114458
0.0114458
0.0114457
0.0114456
0.0114455
0.0114454
0.0114453
0.0114452
0.0114451
0.011445
0.0114449
0.0114447
0.0114446
0.0114444
0.0114443
0.0114441
0.0114439
0.0114437
0.0114435
0.0114433
0.0114431
0.0114428
0.0114426
0.0114423
0.0114421
0.0114418
0.0114415
0.0114411
0.0114408
0.0114404
0.01144
0.0114396
0.0114392
0.0114387
0.0114383
0.0114377
0.0114372
0.0114366
0.011436
0.0114353
0.0114346
0.0114339
0.0114331
0.0114322
0.0114313
0.0114303
0.0114292
0.0114281
0.0114268
0.0114255
0.011424
0.0114224
0.0114206
0.0114187
0.0114166
0.0114143
0.0114117
0.0114089
0.0114059
0.0114025
0.0113988
0.0113947
0.0113902
0.0113852
0.0113797
0.0113737
0.0113671
0.0113599
0.011352
0.0113434
0.011334
0.0113239
0.0113129
0.0113011
0.0112884
0.0112748
0.0112603
0.0112449
0.0112287
0.0112116
0.0111937
0.0111751
0.0111558
0.011136
0.0111156
0.011095
0.0110741
0.0110533
0.0110327
0.0131916
0.0132164
0.0132397
0.0132626
0.0132848
0.0133063
0.013327
0.0133468
0.0133658
0.0133837
0.0134008
0.0134168
0.0134319
0.0134459
0.013459
0.0134712
0.0134825
0.0134929
0.0135024
0.0135112
0.0135192
0.0135265
0.0135332
0.0135393
0.0135447
0.0135497
0.0135542
0.0135583
0.013562
0.0135653
0.0135684
0.0135711
0.0135736
0.0135758
0.0135779
0.0135797
0.0135814
0.013583
0.0135844
0.0135857
0.0135869
0.013588
0.013589
0.0135899
0.0135908
0.0135916
0.0135923
0.013593
0.0135937
0.0135943
0.0135949
0.0135954
0.0135959
0.0135964
0.0135968
0.0135973
0.0135976
0.013598
0.0135984
0.0135987
0.013599
0.0135993
0.0135996
0.0135999
0.0136001
0.0136004
0.0136006
0.0136008
0.013601
0.0136012
0.0136014
0.0136016
0.0136017
0.0136019
0.013602
0.0136022
0.0136023
0.0136024
0.0136025
0.0136026
0.0136027
0.0136028
0.0136029
0.013603
0.0136031
0.0136031
0.0136032
0.0136033
0.0136033
0.0136033
0.0136034
0.0136034
0.0136035
0.0136035
0.0136035
0.0136035
0.0136035
0.0136035
0.0136035
0.0136035
0.0136035
0.0136035
0.0136035
0.0136035
0.0136034
0.0136034
0.0136034
0.0136033
0.0136033
0.0136032
0.0136032
0.0136031
0.013603
0.013603
0.0136029
0.0136028
0.0136027
0.0136026
0.0136025
0.0136024
0.0136023
0.0136021
0.013602
0.0136019
0.0136017
0.0136015
0.0136014
0.0136012
0.013601
0.0136008
0.0136006
0.0136004
0.0136001
0.0135999
0.0135996
0.0135994
0.0135991
0.0135988
0.0135985
0.0135981
0.0135978
0.0135974
0.013597
0.0135966
0.0135961
0.0135956
0.0135951
0.0135946
0.013594
0.0135934
0.0135928
0.0135921
0.0135914
0.0135906
0.0135898
0.0135889
0.0135879
0.0135868
0.0135857
0.0135845
0.0135832
0.0135817
0.0135801
0.0135784
0.0135765
0.0135744
0.0135722
0.0135696
0.0135669
0.0135638
0.0135605
0.0135567
0.0135526
0.0135481
0.0135431
0.0135375
0.0135314
0.0135247
0.0135173
0.0135092
0.0135004
0.0134907
0.0134801
0.0134687
0.0134562
0.0134429
0.0134285
0.013413
0.0133965
0.013379
0.0133605
0.0133409
0.0133203
0.0132988
0.0132764
0.0132532
0.0132293
0.0132048
0.0131799
0.0131548
0.0154114
0.0154405
0.0154675
0.0154936
0.0155187
0.0155427
0.0155657
0.0155875
0.0156081
0.0156276
0.015646
0.0156631
0.0156792
0.0156941
0.0157079
0.0157206
0.0157324
0.0157432
0.0157531
0.0157621
0.0157703
0.0157778
0.0157846
0.0157907
0.0157963
0.0158013
0.0158058
0.0158099
0.0158136
0.0158169
0.0158199
0.0158226
0.015825
0.0158272
0.0158292
0.0158311
0.0158327
0.0158342
0.0158356
0.0158369
0.015838
0.0158391
0.0158401
0.015841
0.0158418
0.0158426
0.0158433
0.015844
0.0158446
0.0158452
0.0158458
0.0158463
0.0158468
0.0158473
0.0158477
0.0158481
0.0158485
0.0158489
0.0158492
0.0158495
0.0158498
0.0158501
0.0158504
0.0158507
0.0158509
0.0158511
0.0158514
0.0158516
0.0158518
0.015852
0.0158521
0.0158523
0.0158525
0.0158526
0.0158528
0.0158529
0.015853
0.0158532
0.0158533
0.0158534
0.0158535
0.0158536
0.0158536
0.0158537
0.0158538
0.0158539
0.0158539
0.015854
0.015854
0.0158541
0.0158541
0.0158542
0.0158542
0.0158542
0.0158542
0.0158542
0.0158543
0.0158543
0.0158543
0.0158543
0.0158543
0.0158542
0.0158542
0.0158542
0.0158542
0.0158541
0.0158541
0.0158541
0.015854
0.015854
0.0158539
0.0158538
0.0158538
0.0158537
0.0158536
0.0158535
0.0158534
0.0158533
0.0158532
0.0158531
0.015853
0.0158529
0.0158527
0.0158526
0.0158525
0.0158523
0.0158521
0.015852
0.0158518
0.0158516
0.0158514
0.0158512
0.0158509
0.0158507
0.0158504
0.0158502
0.0158499
0.0158496
0.0158493
0.0158489
0.0158486
0.0158482
0.0158478
0.0158474
0.015847
0.0158465
0.015846
0.0158455
0.015845
0.0158444
0.0158438
0.0158431
0.0158424
0.0158416
0.0158408
0.0158399
0.015839
0.015838
0.0158369
0.0158357
0.0158344
0.015833
0.0158314
0.0158298
0.0158279
0.0158259
0.0158236
0.0158212
0.0158184
0.0158154
0.0158121
0.0158084
0.0158043
0.0157997
0.0157947
0.0157891
0.0157829
0.0157761
0.0157686
0.0157603
0.0157512
0.0157412
0.0157303
0.0157184
0.0157054
0.0156914
0.0156762
0.0156598
0.0156423
0.0156235
0.0156035
0.0155822
0.0155598
0.0155361
0.0155112
0.0154852
0.0154581
0.01543
0.0154011
0.0153714
0.0176997
0.0177329
0.0177634
0.0177926
0.0178205
0.017847
0.017872
0.0178957
0.017918
0.0179389
0.0179585
0.0179767
0.0179936
0.0180093
0.0180237
0.018037
0.0180492
0.0180604
0.0180706
0.0180798
0.0180882
0.0180958
0.0181027
0.0181089
0.0181145
0.0181195
0.018124
0.0181281
0.0181317
0.018135
0.018138
0.0181406
0.018143
0.0181452
0.0181472
0.0181489
0.0181505
0.018152
0.0181533
0.0181545
0.0181557
0.0181567
0.0181576
0.0181585
0.0181593
0.0181601
0.0181608
0.0181614
0.018162
0.0181626
0.0181631
0.0181637
0.0181641
0.0181646
0.018165
0.0181654
0.0181658
0.0181661
0.0181665
0.0181668
0.0181671
0.0181674
0.0181676
0.0181679
0.0181681
0.0181684
0.0181686
0.0181688
0.018169
0.0181692
0.0181693
0.0181695
0.0181697
0.0181698
0.01817
0.0181701
0.0181702
0.0181703
0.0181704
0.0181705
0.0181706
0.0181707
0.0181708
0.0181709
0.018171
0.018171
0.0181711
0.0181711
0.0181712
0.0181712
0.0181713
0.0181713
0.0181713
0.0181714
0.0181714
0.0181714
0.0181714
0.0181714
0.0181714
0.0181714
0.0181714
0.0181714
0.0181714
0.0181714
0.0181713
0.0181713
0.0181713
0.0181712
0.0181712
0.0181711
0.0181711
0.018171
0.0181709
0.0181709
0.0181708
0.0181707
0.0181706
0.0181705
0.0181704
0.0181703
0.0181702
0.0181701
0.0181699
0.0181698
0.0181696
0.0181695
0.0181693
0.0181692
0.018169
0.0181688
0.0181686
0.0181684
0.0181681
0.0181679
0.0181677
0.0181674
0.0181671
0.0181668
0.0181665
0.0181662
0.0181659
0.0181655
0.0181651
0.0181647
0.0181643
0.0181638
0.0181634
0.0181629
0.0181623
0.0181618
0.0181612
0.0181605
0.0181598
0.0181591
0.0181583
0.0181575
0.0181566
0.0181556
0.0181545
0.0181534
0.0181521
0.0181508
0.0181493
0.0181476
0.0181458
0.0181439
0.0181417
0.0181393
0.0181366
0.0181336
0.0181303
0.0181266
0.0181226
0.018118
0.018113
0.0181074
0.0181012
0.0180943
0.0180866
0.0180782
0.0180689
0.0180587
0.0180474
0.0180351
0.0180216
0.018007
0.0179911
0.0179739
0.0179553
0.0179354
0.017914
0.0178911
0.0178668
0.0178411
0.0178138
0.0177851
0.017755
0.0177235
0.0176907
0.0176566
0.020031
0.020068
0.0201018
0.0201339
0.0201642
0.020193
0.02022
0.0202454
0.0202692
0.0202914
0.0203121
0.0203312
0.020349
0.0203653
0.0203803
0.0203941
0.0204066
0.0204181
0.0204285
0.0204379
0.0204465
0.0204541
0.0204611
0.0204673
0.0204729
0.0204779
0.0204824
0.0204864
0.0204901
0.0204933
0.0204962
0.0204988
0.0205011
0.0205032
0.0205051
0.0205068
0.0205084
0.0205098
0.0205111
0.0205122
0.0205133
0.0205143
0.0205152
0.020516
0.0205168
0.0205175
0.0205182
0.0205188
0.0205194
0.02052
0.0205205
0.020521
0.0205214
0.0205219
0.0205223
0.0205227
0.020523
0.0205234
0.0205237
0.020524
0.0205243
0.0205246
0.0205248
0.0205251
0.0205253
0.0205255
0.0205258
0.020526
0.0205261
0.0205263
0.0205265
0.0205267
0.0205268
0.020527
0.0205271
0.0205272
0.0205273
0.0205275
0.0205276
0.0205277
0.0205278
0.0205278
0.0205279
0.020528
0.0205281
0.0205281
0.0205282
0.0205283
0.0205283
0.0205284
0.0205284
0.0205284
0.0205285
0.0205285
0.0205285
0.0205285
0.0205285
0.0205285
0.0205285
0.0205285
0.0205285
0.0205285
0.0205285
0.0205285
0.0205284
0.0205284
0.0205284
0.0205283
0.0205283
0.0205282
0.0205282
0.0205281
0.0205281
0.020528
0.0205279
0.0205278