/*--------------------------------*- C++ -*----------------------------------*\
| =========                 |                                                 |
| \\      /  F ield         | OpenFOAM: The Open Source CFD Toolbox           |
|  \\    /   O peration     | Version:  2412                                  |
|   \\  /    A nd           | Website:  www.openfoam.com                      |
|    \\/     M anipulation  |                                                 |
\*---------------------------------------------------------------------------*/
FoamFile
{
    version     2.0;
    format      ascii;
    arch        "LSB;label=32;scalar=64";
    class       surfaceScalarField;
    location    "400";
    object      phi;
}
// * * * * * * * * * * * * * * * * * * * * * * * * * * * * * * * * * * * * * //

dimensions      [0 3 -1 0 0 0 0];

oriented        oriented;

internalField   nonuniform List<scalar> 
79600
(
-9.51378e-13
9.44928e-13
-4.76142e-12
3.80972e-12
-1.0617e-11
5.85583e-12
-1.74544e-11
6.83671e-12
-2.44314e-11
6.9775e-12
-3.09658e-11
6.53418e-12
-3.66936e-11
5.72781e-12
-4.14187e-11
4.72585e-12
-4.50691e-11
3.64917e-12
-4.76514e-11
2.58283e-12
-4.92337e-11
1.5812e-12
-4.99132e-11
6.79897e-13
-4.98091e-11
-1.03591e-13
-4.90468e-11
-7.62172e-13
-4.77503e-11
-1.29624e-12
-4.60377e-11
-1.71278e-12
-4.40158e-11
-2.02169e-12
-4.17799e-11
-2.23576e-12
-3.94116e-11
-2.36812e-12
-3.69798e-11
-2.43169e-12
-3.45404e-11
-2.43919e-12
-3.21377e-11
-2.40227e-12
-2.98061e-11
-2.33113e-12
-2.757e-11
-2.23534e-12
-2.54478e-11
-2.1222e-12
-2.34488e-11
-1.9978e-12
-2.15806e-11
-1.86832e-12
-1.98439e-11
-1.73665e-12
-1.82374e-11
-1.60635e-12
-1.67573e-11
-1.48e-12
-1.53981e-11
-1.35912e-12
-1.41533e-11
-1.2447e-12
-1.30158e-11
-1.13773e-12
-1.19777e-11
-1.03811e-12
-1.10316e-11
-9.46041e-13
-1.01702e-11
-8.61814e-13
-9.38578e-12
-7.84291e-13
-8.67219e-12
-7.14188e-13
-8.02188e-12
-6.49659e-13
-7.43046e-12
-5.9228e-13
-6.89032e-12
-5.39398e-13
-6.39852e-12
-4.9229e-13
-5.94917e-12
-4.49646e-13
-5.53825e-12
-4.10756e-13
-5.16248e-12
-3.75722e-13
-4.81758e-12
-3.44248e-13
-4.50084e-12
-3.16118e-13
-4.21024e-12
-2.90929e-13
-3.94279e-12
-2.67956e-13
-3.69583e-12
-2.46907e-13
-3.46771e-12
-2.27961e-13
-3.25687e-12
-2.11029e-13
-3.06153e-12
-1.9561e-13
-2.88023e-12
-1.81435e-13
-2.71175e-12
-1.68502e-13
-2.5549e-12
-1.5675e-13
-2.40857e-12
-1.46037e-13
-2.2719e-12
-1.3636e-13
-2.14414e-12
-1.27677e-13
-2.02459e-12
-1.19762e-13
-1.91248e-12
-1.12344e-13
-1.80715e-12
-1.0538e-13
-1.708e-12
-9.89718e-14
-1.61459e-12
-9.31857e-14
-1.52647e-12
-8.79395e-14
-1.44328e-12
-8.31289e-14
-1.36465e-12
-7.86495e-14
-1.29022e-12
-7.44575e-14
-1.21957e-12
-7.05584e-14
-1.15243e-12
-6.69886e-14
-1.08855e-12
-6.37317e-14
-1.0277e-12
-6.07488e-14
-9.69673e-13
-5.79657e-14
-9.14258e-13
-5.53181e-14
-8.61213e-13
-5.28502e-14
-8.10391e-13
-5.06039e-14
-7.61682e-13
-4.85827e-14
-7.14865e-13
-4.66994e-14
-6.69757e-13
-4.495e-14
-6.26266e-13
-4.33337e-14
-5.84284e-13
-4.18385e-14
-5.43717e-13
-4.04576e-14
-5.045e-13
-3.91314e-14
-4.66421e-13
-3.7893e-14
-4.29331e-13
-3.69092e-14
-3.93219e-13
-3.61785e-14
-3.58103e-13
-3.54722e-14
-3.23908e-13
-3.45375e-14
-2.90361e-13
-3.34027e-14
-2.57241e-13
-3.24653e-14
-2.246e-13
-3.20406e-14
-1.92617e-13
-3.19739e-14
-1.61321e-13
-3.1854e-14
-1.30462e-13
-3.14639e-14
-9.9732e-14
-3.09336e-14
-6.90592e-14
-3.05015e-14
-3.85345e-14
-3.02634e-14
-8.20752e-15
-3.01724e-14
2.19583e-14
-3.01533e-14
5.20997e-14
-3.01838e-14
8.23596e-14
-3.02911e-14
1.12782e-13
-3.04759e-14
1.43387e-13
-3.07008e-14
1.74232e-13
-3.09345e-14
2.0539e-13
-3.11751e-14
2.36929e-13
-3.14656e-14
2.68895e-13
-3.18703e-14
3.01353e-13
-3.24114e-14
3.34393e-13
-3.30465e-14
3.68093e-13
-3.37027e-14
4.02532e-13
-3.43502e-14
4.37817e-13
-3.50551e-14
4.74034e-13
-3.59164e-14
5.1123e-13
-3.69518e-14
5.49467e-13
-3.81019e-14
5.88851e-13
-3.93296e-14
6.2947e-13
-4.06282e-14
6.71441e-13
-4.19871e-14
7.14938e-13
-4.34244e-14
7.60107e-13
-4.49913e-14
8.07036e-13
-4.67242e-14
8.55819e-13
-4.86118e-14
9.06584e-13
-5.06221e-14
9.59506e-13
-5.2773e-14
1.01477e-12
-5.51308e-14
1.07257e-12
-5.77309e-14
1.13309e-12
-6.05467e-14
1.19656e-12
-6.35304e-14
1.26321e-12
-6.66834e-14
1.33333e-12
-7.00883e-14
1.40718e-12
-7.38275e-14
1.48496e-12
-7.78988e-14
1.56696e-12
-8.2255e-14
1.6536e-12
-8.68859e-14
1.7454e-12
-9.18541e-14
1.84282e-12
-9.72636e-14
1.94624e-12
-1.03184e-13
2.05604e-12
-1.09658e-13
2.1728e-12
-1.16749e-13
2.29715e-12
-1.24487e-13
2.42984e-12
-1.32902e-13
2.57164e-12
-1.42063e-13
2.72328e-12
-1.51944e-13
2.88573e-12
-1.62477e-13
3.06024e-12
-1.73874e-13
3.24807e-12
-1.86659e-13
3.45032e-12
-2.01323e-13
3.66806e-12
-2.17887e-13
3.90272e-12
-2.35889e-13
4.15638e-12
-2.55038e-13
4.43142e-12
-2.75675e-13
4.73007e-12
-2.9849e-13
5.0546e-12
-3.24017e-13
5.40761e-12
-3.5246e-13
5.79218e-12
-3.83995e-13
6.21183e-12
-4.19003e-13
6.67036e-12
-4.57925e-13
7.17197e-12
-5.01188e-13
7.72124e-12
-5.49192e-13
8.32323e-12
-6.02282e-13
8.98359e-12
-6.60819e-13
9.70851e-12
-7.25306e-13
1.05047e-11
-7.96402e-13
1.13792e-11
-8.74731e-13
1.23396e-11
-9.60695e-13
1.33935e-11
-1.05447e-12
1.45494e-11
-1.15618e-12
1.58158e-11
-1.26612e-12
1.72007e-11
-1.3844e-12
1.87119e-11
-1.51064e-12
2.03562e-11
-1.64401e-12
2.21393e-11
-1.783e-12
2.4065e-11
-1.92558e-12
2.61347e-11
-2.06931e-12
2.83457e-11
-2.2107e-12
3.0691e-11
-2.34511e-12
3.31577e-11
-2.4667e-12
3.57257e-11
-2.56818e-12
3.83668e-11
-2.64109e-12
4.10424e-11
-2.6755e-12
4.37024e-11
-2.65993e-12
4.62845e-11
-2.58179e-12
4.8712e-11
-2.42731e-12
5.08943e-11
-2.18226e-12
5.27266e-11
-1.83236e-12
5.4091e-11
-1.36444e-12
5.48591e-11
-7.67984e-13
5.48958e-11
-3.63687e-14
5.4066e-11
8.30327e-13
5.22429e-11
1.82322e-12
4.9322e-11
2.9209e-12
4.52372e-11
4.0845e-12
3.9985e-11
5.25202e-12
3.36543e-11
6.33051e-12
2.64671e-11
7.18735e-12
1.88282e-11
7.63951e-12
1.13807e-11
7.44816e-12
5.04186e-12
6.33954e-12
9.61992e-13
4.08066e-12
9.62222e-13
-4.09368e-12
5.03886e-12
-1.4376e-11
1.40914e-11
-2.87642e-11
2.02443e-11
-4.52017e-11
2.32738e-11
-6.19878e-11
2.37647e-11
-7.78632e-11
2.24094e-11
-9.19763e-11
1.98409e-11
-1.0382e-10
1.65706e-11
-1.13159e-10
1.29889e-11
-1.19958e-10
9.38202e-12
-1.24324e-10
5.94722e-12
-1.26459e-10
2.81501e-12
-1.26623e-10
6.05632e-14
-1.25104e-10
-2.28107e-12
-1.22195e-10
-4.20472e-12
-1.18183e-10
-5.72558e-12
-1.13331e-10
-6.87362e-12
-1.07879e-10
-7.68799e-12
-1.02035e-10
-8.21158e-12
-9.59775e-11
-8.48911e-12
-8.98541e-11
-8.56305e-12
-8.37827e-11
-8.47366e-12
-7.78575e-11
-8.25755e-12
-7.21464e-11
-7.9462e-12
-6.67011e-11
-7.56829e-12
-6.15537e-11
-7.14578e-12
-5.6724e-11
-6.69816e-12
-5.22203e-11
-6.2403e-12
-4.80426e-11
-5.78445e-12
-4.41837e-11
-5.33907e-12
-4.06319e-11
-4.91074e-12
-3.73726e-11
-4.50413e-12
-3.43885e-11
-4.12169e-12
-3.1661e-11
-3.76507e-12
-2.9172e-11
-3.43487e-12
-2.69022e-11
-3.13111e-12
-2.4834e-11
-2.85239e-12
-2.29493e-11
-2.59841e-12
-2.12326e-11
-2.36687e-12
-1.96678e-11
-2.15727e-12
-1.82401e-11
-1.96627e-12
-1.69382e-11
-1.79496e-12
-1.57481e-11
-1.63944e-12
-1.46597e-11
-1.49885e-12
-1.36643e-11
-1.3727e-12
-1.27513e-11
-1.25805e-12
-1.19125e-11
-1.15426e-12
-1.11418e-11
-1.06133e-12
-1.04324e-11
-9.77411e-13
-9.77805e-12
-9.01155e-13
-9.17384e-12
-8.32186e-13
-8.61499e-12
-7.69812e-13
-8.09709e-12
-7.13175e-13
-7.61661e-12
-6.61813e-13
-7.17027e-12
-6.15202e-13
-6.75483e-12
-5.72665e-13
-6.36749e-12
-5.33711e-13
-6.00583e-12
-4.98128e-13
-5.66758e-12
-4.65693e-13
-5.35073e-12
-4.36109e-13
-5.05363e-12
-4.09037e-13
-4.77475e-12
-3.84185e-13
-4.51255e-12
-3.61296e-13
-4.26557e-12
-3.40193e-13
-4.03255e-12
-3.20765e-13
-3.81246e-12
-3.02956e-13
-3.6044e-12
-2.86598e-13
-3.40741e-12
-2.71466e-13
-3.22057e-12
-2.57399e-13
-3.04307e-12
-2.44358e-13
-2.87424e-12
-2.32319e-13
-2.7134e-12
-2.21251e-13
-2.55997e-12
-2.1106e-13
-2.41346e-12
-2.01621e-13
-2.27336e-12
-1.92837e-13
-2.13917e-12
-1.84723e-13
-2.01044e-12
-1.77217e-13
-1.8867e-12
-1.70236e-13
-1.76755e-12
-1.63785e-13
-1.65269e-12
-1.57833e-13
-1.54187e-12
-1.52424e-13
-1.43473e-12
-1.47483e-13
-1.33114e-12
-1.42934e-13
-1.23079e-12
-1.38617e-13
-1.1331e-12
-1.34501e-13
-1.03768e-12
-1.30858e-13
-9.4449e-13
-1.27855e-13
-8.5368e-13
-1.25306e-13
-7.65207e-13
-1.22838e-13
-6.78532e-13
-1.20238e-13
-5.93047e-13
-1.17738e-13
-5.08607e-13
-1.15775e-13
-4.25396e-13
-1.14431e-13
-3.43374e-13
-1.13375e-13
-2.62172e-13
-1.12347e-13
-1.81483e-13
-1.11393e-13
-1.01218e-13
-1.10667e-13
-2.13282e-14
-1.10248e-13
5.82973e-14
-1.10093e-13
1.37903e-13
-1.10096e-13
2.17781e-13
-1.10242e-13
2.98078e-13
-1.10618e-13
3.78891e-13
-1.11278e-13
4.60377e-13
-1.12198e-13
5.42685e-13
-1.1334e-13
6.25936e-13
-1.14701e-13
7.10273e-13
-1.16303e-13
7.9593e-13
-1.18149e-13
8.83207e-13
-1.20243e-13
9.72311e-13
-1.22611e-13
1.06334e-12
-1.25268e-13
1.15646e-12
-1.28193e-13
1.25194e-12
-1.31386e-13
1.35006e-12
-1.34879e-13
1.45105e-12
-1.3872e-13
1.55511e-12
-1.4297e-13
1.6625e-12
-1.47663e-13
1.77348e-12
-1.52759e-13
1.8884e-12
-1.5821e-13
2.00765e-12
-1.64058e-13
2.13157e-12
-1.70397e-13
2.26045e-12
-1.77297e-13
2.39461e-12
-1.84756e-13
2.53444e-12
-1.92768e-13
2.68045e-12
-2.01372e-13
2.83322e-12
-2.10634e-13
2.99331e-12
-2.20633e-13
3.16123e-12
-2.31436e-13
3.33751e-12
-2.43059e-13
3.52283e-12
-2.55533e-13
3.71802e-12
-2.68991e-13
3.92384e-12
-2.83617e-13
4.14111e-12
-2.99528e-13
4.37072e-12
-3.16726e-13
4.61374e-12
-3.3521e-13
4.87134e-12
-3.55131e-13
5.14473e-12
-3.76735e-13
5.43529e-12
-4.00222e-13
5.74457e-12
-4.25806e-13
6.07419e-12
-4.53709e-13
6.42595e-12
-4.84144e-13
6.80194e-12
-5.17479e-13
7.20426e-12
-5.54126e-13
7.63503e-12
-5.94214e-13
8.09697e-12
-6.3768e-13
8.59356e-12
-6.84754e-13
9.12872e-12
-7.36322e-13
9.70626e-12
-7.93623e-13
1.03298e-11
-8.57423e-13
1.10037e-11
-9.27897e-13
1.17334e-11
-1.00533e-12
1.25249e-11
-1.09054e-12
1.33849e-11
-1.18468e-12
1.43206e-11
-1.28888e-12
1.53398e-11
-1.40422e-12
1.64518e-11
-1.53184e-12
1.76665e-11
-1.67309e-12
1.89949e-11
-1.82951e-12
2.04493e-11
-2.00286e-12
2.20428e-11
-2.19482e-12
2.37898e-11
-2.40702e-12
2.57061e-11
-2.64106e-12
2.78087e-11
-2.89859e-12
3.0116e-11
-3.18131e-12
3.26472e-11
-3.49095e-12
3.54219e-11
-3.82874e-12
3.84606e-11
-4.19509e-12
4.17837e-11
-4.58996e-12
4.54112e-11
-5.0127e-12
4.93615e-11
-5.46148e-12
5.36503e-11
-5.93322e-12
5.82895e-11
-6.42283e-12
6.32854e-11
-6.92254e-12
6.86374e-11
-7.42224e-12
7.43346e-11
-7.90873e-12
8.03541e-11
-8.36493e-12
8.66573e-11
-8.76991e-12
9.31868e-11
-9.09781e-12
9.98635e-11
-9.31792e-12
1.06583e-10
-9.39492e-12
1.13211e-10
-9.28868e-12
1.19585e-10
-8.9552e-12
1.25506e-10
-8.34772e-12
1.30742e-10
-7.41859e-12
1.35032e-10
-6.12169e-12
1.38084e-10
-4.41606e-12
1.39587e-10
-2.27088e-12
1.39221e-10
3.28827e-13
1.36678e-10
3.37391e-12
1.31679e-10
6.82195e-12
1.24015e-10
1.05859e-11
1.1358e-10
1.45204e-11
1.00427e-10
1.84046e-11
8.48341e-11
2.1924e-11
6.73698e-11
2.46508e-11
4.89799e-11
2.60285e-11
3.10515e-11
2.53753e-11
1.54357e-11
2.19537e-11
4.35215e-12
1.51631e-11
5.31469e-12
-6.59543e-12
1.16341e-11
-2.18351e-11
2.93332e-11
-4.23835e-11
4.0793e-11
-6.5542e-11
4.64321e-11
-8.91441e-11
4.73672e-11
-1.11555e-10
4.48206e-11
-1.31632e-10
3.99168e-11
-1.48656e-10
3.35952e-11
-1.62262e-10
2.65947e-11
-1.72354e-10
1.94746e-11
-1.79039e-10
1.26325e-11
-1.82564e-10
6.33932e-12
-1.83264e-10
7.60197e-13
-1.81523e-10
-4.02129e-12
-1.77744e-10
-7.98225e-12
-1.72324e-10
-1.11451e-11
-1.65636e-10
-1.35617e-11
-1.58021e-10
-1.53031e-11
-1.49781e-10
-1.6452e-11
-1.41175e-10
-1.70951e-11
-1.32421e-10
-1.73166e-11
-1.23696e-10
-1.71977e-11
-1.15143e-10
-1.68119e-11
-1.06866e-10
-1.6223e-11
-9.89446e-11
-1.54889e-11
-9.1433e-11
-1.4657e-11
-8.43643e-11
-1.37663e-11
-7.77558e-11
-1.28492e-11
-7.16103e-11
-1.193e-11
-6.59214e-11
-1.1028e-11
-6.0675e-11
-1.01574e-11
-5.58515e-11
-9.32774e-12
-5.1428e-11
-8.54561e-12
-4.73789e-11
-7.81405e-12
-4.3679e-11
-7.13606e-12
-4.03002e-11
-6.50935e-12
-3.72184e-11
-5.93493e-12
-3.44071e-11
-5.40946e-12
-3.18438e-11
-4.93063e-12
-2.95048e-11
-4.49566e-12
-2.73711e-11
-4.10113e-12
-2.5422e-11
-3.74382e-12
-2.36401e-11
-3.42079e-12
-2.20104e-11
-3.12887e-12
-2.05173e-11
-2.8652e-12
-1.91479e-11
-2.62718e-12
-1.78908e-11
-2.41229e-12
-1.67347e-11
-2.218e-12
-1.56696e-11
-2.04225e-12
-1.46875e-11
-1.88345e-12
-1.37805e-11
-1.73976e-12
-1.29413e-11
-1.60931e-12
-1.21636e-11
-1.49083e-12
-1.14419e-11
-1.38334e-12
-1.07712e-11
-1.28574e-12
-1.01469e-11
-1.19688e-12
-9.56488e-12
-1.11587e-12
-9.02162e-12
-1.04188e-12
-8.51361e-12
-9.74131e-13
-8.03771e-12
-9.12021e-13
-7.59135e-12
-8.55163e-13
-7.17222e-12
-8.03129e-13
-6.77814e-12
-7.55393e-13
-6.407e-12
-7.11442e-13
-6.057e-12
-6.70929e-13
-5.72643e-12
-6.33605e-13
-5.41379e-12
-5.99236e-13
-5.11771e-12
-5.67528e-13
-4.83693e-12
-5.38212e-13
-4.57027e-12
-5.11107e-13
-4.31666e-12
-4.86038e-13
-4.07509e-12
-4.62867e-13
-3.84458e-12
-4.41421e-13
-3.62444e-12
-4.21622e-13
-3.41397e-12
-4.03303e-13
-3.21237e-12
-3.86352e-13
-3.01894e-12
-3.70664e-13
-2.83307e-12
-3.56109e-13
-2.65417e-12
-3.42665e-13
-2.48177e-12
-3.3024e-13
-2.31536e-12
-3.18785e-13
-2.15442e-12
-3.08302e-13
-1.99859e-12
-2.98785e-13
-1.84758e-12
-2.90077e-13
-1.70099e-12
-2.81871e-13
-1.55814e-12
-2.74109e-13
-1.41849e-12
-2.67078e-13
-1.28191e-12
-2.61053e-13
-1.14842e-12
-2.55948e-13
-1.01785e-12
-2.51334e-13
-8.89696e-13
-2.46901e-13
-7.63383e-13
-2.42798e-13
-6.38566e-13
-2.39343e-13
-5.15168e-13
-2.36586e-13
-3.9302e-13
-2.3435e-13
-2.71842e-13
-2.3253e-13
-1.51398e-13
-2.3116e-13
-3.14496e-14
-2.30305e-13
8.82493e-14
-2.29957e-13
2.07945e-13
-2.30034e-13
3.27927e-13
-2.30493e-13
4.48462e-13
-2.31375e-13
5.69797e-13
-2.32722e-13
6.9218e-13
-2.34555e-13
8.15799e-13
-2.36907e-13
9.40837e-13
-2.398e-13
1.06756e-12
-2.43219e-13
1.19631e-12
-2.47114e-13
1.32745e-12
-2.51462e-13
1.46132e-12
-2.56341e-13
1.59811e-12
-2.61874e-13
1.73807e-12
-2.68098e-13
1.88153e-12
-2.74966e-13
2.02891e-12
-2.82444e-13
2.18053e-12
-2.90561e-13
2.33677e-12
-2.99399e-13
2.49809e-12
-3.09049e-13
2.66489e-12
-3.19562e-13
2.83763e-12
-3.30943e-13
3.01677e-12
-3.43215e-13
3.20285e-12
-3.56455e-13
3.39642e-12
-3.70779e-13
3.598e-12
-3.86297e-13
3.80818e-12
-4.03061e-13
4.02765e-12
-4.21104e-13
4.25722e-12
-4.40486e-13
4.49777e-12
-4.61348e-13
4.75013e-12
-4.83884e-13
5.01514e-12
-5.08229e-13
5.29373e-12
-5.34452e-13
5.58698e-12
-5.62686e-13
5.89616e-12
-5.9317e-13
6.22264e-12
-6.26178e-13
6.56786e-12
-6.61935e-13
6.93333e-12
-7.00626e-13
7.32069e-12
-7.42531e-13
7.73175e-12
-7.88013e-13
8.16851e-12
-8.37396e-13
8.63328e-12
-8.91055e-13
9.12851e-12
-9.49452e-13
9.65687e-12
-1.01298e-12
1.02216e-11
-1.08214e-12
1.08263e-11
-1.15785e-12
1.14745e-11
-1.24109e-12
1.21698e-11
-1.33257e-12
1.29166e-11
-1.43267e-12
1.37202e-11
-1.54199e-12
1.45868e-11
-1.66184e-12
1.55229e-11
-1.79393e-12
1.65351e-11
-1.9398e-12
1.76312e-11
-2.10085e-12
1.88198e-11
-2.27862e-12
2.01107e-11
-2.47503e-12
2.15148e-11
-2.69233e-12
2.30439e-11
-2.93289e-12
2.47114e-11
-3.19918e-12
2.6532e-11
-3.49386e-12
2.85217e-11
-3.81987e-12
3.06986e-11
-4.18042e-12
3.30822e-11
-4.5789e-12
3.56938e-11
-5.01886e-12
3.85561e-11
-5.5038e-12
4.16938e-11
-6.03696e-12
4.51332e-11
-6.62136e-12
4.89019e-11
-7.2599e-12
5.30285e-11
-7.95495e-12
5.75417e-11
-8.70764e-12
6.24699e-11
-9.51768e-12
6.78404e-11
-1.0383e-11
7.36779e-11
-1.12989e-11
8.0003e-11
-1.22581e-11
8.68301e-11
-1.32496e-11
9.41648e-11
-1.4257e-11
1.02001e-10
-1.52588e-11
1.10319e-10
-1.62269e-11
1.19079e-10
-1.71253e-11
1.28219e-10
-1.79102e-11
1.3765e-10
-1.85286e-11
1.4725e-10
-1.89176e-11
1.56861e-10
-1.90055e-11
1.66283e-10
-1.87114e-11
1.75276e-10
-1.79475e-11
1.83549e-10
-1.66212e-11
1.9077e-10
-1.46394e-11
1.96562e-10
-1.19144e-11
2.00517e-10
-8.3706e-12
2.02202e-10
-3.95506e-12
2.0118e-10
1.35091e-12
1.97037e-10
7.51639e-12
1.89416e-10
1.44422e-11
1.78062e-10
2.19402e-11
1.62874e-10
2.9708e-11
1.43977e-10
3.73019e-11
1.21794e-10
4.4108e-11
9.71288e-11
4.93164e-11
7.125e-11
5.1908e-11
4.59534e-11
5.06725e-11
2.35968e-11
4.43103e-11
7.09113e-12
3.16681e-11
1.24062e-11
-8.15374e-12
1.97862e-11
-2.66647e-11
4.78436e-11
-5.13128e-11
6.54403e-11
-7.8917e-11
7.40367e-11
-1.07017e-10
7.54676e-11
-1.33767e-10
7.15707e-11
-1.57859e-10
6.40087e-11
-1.78451e-10
5.41863e-11
-1.95086e-10
4.32305e-11
-2.07619e-10
3.20072e-11
-2.16136e-10
2.11501e-11
-2.20894e-10
1.10982e-11
-2.22263e-10
2.1277e-12
-2.20674e-10
-5.61119e-12
-2.1659e-10
-1.20673e-11
-2.10472e-10
-1.72632e-11
-2.02761e-10
-2.12714e-11
-1.93865e-10
-2.41987e-11
-1.84148e-10
-2.61701e-11
-1.73923e-10
-2.73192e-11
-1.6346e-10
-2.77802e-11
-1.52979e-10
-2.76792e-11
-1.42654e-10
-2.71349e-11
-1.32626e-10
-2.62517e-11
-1.22994e-10
-2.5121e-11
-1.1383e-10
-2.38207e-11
-1.05181e-10
-2.24156e-11
-9.70721e-11
-2.09581e-11
-8.95124e-11
-1.94896e-11
-8.24981e-11
-1.80423e-11
-7.60154e-11
-1.66403e-11
-7.00432e-11
-1.52997e-11
-6.45554e-11
-1.40323e-11
-5.95247e-11
-1.28454e-11
-5.49183e-11
-1.1741e-11
-5.07075e-11
-1.07204e-11
-4.68605e-11
-9.78244e-12
-4.33468e-11
-8.92249e-12
-4.01396e-11
-8.13895e-12
-3.72096e-11
-7.42489e-12
-3.45338e-11
-6.7775e-12
-3.20877e-11
-6.19009e-12
-2.98493e-11
-5.65841e-12
-2.78005e-11
-5.17824e-12
-2.59225e-11
-4.74344e-12
-2.41987e-11
-4.35038e-12
-2.26148e-11
-3.9958e-12
-2.11577e-11
-3.67517e-12
-1.98151e-11
-3.38486e-12
-1.85763e-11
-3.12223e-12
-1.74314e-11
-2.88444e-12
-1.6372e-11
-2.66876e-12
-1.53901e-11
-2.47296e-12
-1.44787e-11
-2.29502e-12
-1.36314e-11
-2.13311e-12
-1.28423e-11
-1.98567e-12
-1.21066e-11
-1.85135e-12
-1.14195e-11
-1.72876e-12
-1.0777e-11
-1.61659e-12
-1.01753e-11
-1.51378e-12
-9.61086e-12
-1.41954e-12
-9.08074e-12
-1.33314e-12
-8.5821e-12
-1.25384e-12
-8.11245e-12
-1.18096e-12
-7.66953e-12
-1.11387e-12
-7.25122e-12
-1.052e-12
-6.85553e-12
-9.94897e-13
-6.48072e-12
-9.42197e-13
-6.12526e-12
-8.93548e-13
-5.78767e-12
-8.48626e-13
-5.46661e-12
-8.07144e-13
-5.16077e-12
-7.68721e-13
-4.86899e-12
-7.33154e-13
-4.59026e-12
-7.00241e-13
-4.32372e-12
-6.69804e-13
-4.06841e-12
-6.41633e-13
-3.8234e-12
-6.15521e-13
-3.58802e-12
-5.91417e-13
-3.36145e-12
-5.69138e-13
-3.14315e-12
-5.48596e-13
-2.93248e-12
-5.2959e-13
-2.72878e-12
-5.12011e-13
-2.5314e-12
-4.95905e-13
-2.33982e-12
-4.81279e-13
-2.15376e-12
-4.6795e-13
-1.97282e-12
-4.55592e-13
-1.79636e-12
-4.44104e-13
-1.62377e-12
-4.33689e-13
-1.45463e-12
-4.24527e-13
-1.28876e-12
-4.16561e-13
-1.12606e-12
-4.09525e-13
-9.66068e-13
-4.03179e-13
-8.08122e-13
-3.97543e-13
-6.51845e-13
-3.92774e-13
-4.97056e-13
-3.88916e-13
-3.4353e-13
-3.8591e-13
-1.90986e-13
-3.83696e-13
-3.90479e-14
-3.82241e-13
1.1267e-13
-3.81533e-13
2.64439e-13
-3.81585e-13
4.16531e-13
-3.82412e-13
5.69269e-13
-3.84016e-13
7.22993e-13
-3.86372e-13
8.78028e-13
-3.89484e-13
1.03463e-12
-3.93418e-13
1.19307e-12
-3.98223e-13
1.35371e-12
-4.03895e-13
1.51694e-12
-4.10404e-13
1.68315e-12
-4.17736e-13
1.85269e-12
-4.25941e-13
2.02595e-12
-4.3512e-13
2.20329e-12
-4.45356e-13
2.38513e-12
-4.56681e-13
2.57191e-12
-4.69123e-13
2.76403e-12
-4.82718e-13
2.96195e-12
-4.97494e-13
3.16627e-12
-5.13512e-13
3.37759e-12
-5.3089e-13
3.59645e-12
-5.4975e-13
3.82341e-12
-5.70167e-13
4.05909e-12
-5.92194e-13
4.3042e-12
-6.15946e-13
4.5595e-12
-6.41606e-13
4.82575e-12
-6.69327e-13
5.10383e-12
-6.99216e-13
5.39467e-12
-7.31386e-13
5.69928e-12
-7.6601e-13
6.01883e-12
-8.03346e-13
6.35446e-12
-8.43673e-13
6.70735e-12
-8.87224e-13
7.0788e-12
-9.34238e-13
7.47031e-12
-9.84982e-13
7.88364e-12
-1.03977e-12
8.32067e-12
-1.09902e-12
8.78327e-12
-1.16316e-12
9.27355e-12
-1.23267e-12
9.79386e-12
-1.30811e-12
1.03467e-11
-1.39008e-12
1.09351e-11
-1.47921e-12
1.15619e-11
-1.57631e-12
1.22305e-11
-1.68213e-12
1.29447e-11
-1.79732e-12
1.37088e-11
-1.92281e-12
1.45278e-11
-2.06001e-12
1.5407e-11
-2.21059e-12
1.63517e-11
-2.37611e-12
1.73678e-11
-2.55785e-12
1.84626e-11
-2.75726e-12
1.96444e-11
-2.97643e-12
2.0922e-11
-3.21785e-12
2.23051e-11
-3.48416e-12
2.38042e-11
-3.7781e-12
2.54315e-11
-4.10271e-12
2.72005e-11
-4.46149e-12
2.91261e-11
-4.85827e-12
3.12246e-11
-5.29721e-12
3.35142e-11
-5.78284e-12
3.60146e-11
-6.3199e-12
3.87479e-11
-6.91339e-12
4.17378e-11
-7.56861e-12
4.50103e-11
-8.29108e-12
4.85933e-11
-9.08638e-12
5.25166e-11
-9.95989e-12
5.68114e-11
-1.09164e-11
6.15108e-11
-1.19598e-11
6.66487e-11
-1.30932e-11
7.2259e-11
-1.43181e-11
7.83749e-11
-1.56334e-11
8.50274e-11
-1.70353e-11
9.22438e-11
-1.85156e-11
1.00046e-10
-2.00607e-11
1.08448e-10
-2.16516e-11
1.17452e-10
-2.32611e-11
1.27046e-10
-2.48528e-11
1.37199e-10
-2.63801e-11
1.47858e-10
-2.77838e-11
1.58939e-10
-2.89916e-11
1.70327e-10
-2.9917e-11
1.81868e-10
-3.04586e-11
1.93364e-10
-3.05006e-11
2.04566e-10
-2.99139e-11
2.15179e-10
-2.85596e-11
2.2485e-10
-2.62924e-11
2.33179e-10
-2.2968e-11
2.39717e-10
-1.84526e-11
2.43981e-10
-1.26345e-11
2.45467e-10
-5.44064e-12
2.43673e-10
3.14446e-12
2.38135e-10
1.30555e-11
2.28459e-10
2.41182e-11
2.14381e-10
3.6018e-11
1.95824e-10
4.82646e-11
1.7297e-10
6.0155e-11
1.46342e-10
7.07364e-11
1.16881e-10
7.87769e-11
8.60357e-11
8.27537e-11
5.58308e-11
8.08776e-11
2.89469e-11
7.11944e-11
8.8227e-12
5.17916e-11
2.12294e-11
-8.91084e-12
2.86978e-11
-2.91659e-11
6.80991e-11
-5.60885e-11
9.23627e-11
-8.6204e-11
1.04153e-10
-1.1688e-10
1.06144e-10
-1.46161e-10
1.00851e-10
-1.72656e-10
9.05041e-11
-1.95457e-10
7.69863e-11
-2.14053e-10
6.18266e-11
-2.28259e-10
4.62122e-11
-2.38135e-10
3.1027e-11
-2.43929e-10
1.68916e-11
-2.46009e-10
4.20882e-12
-2.44824e-10
-6.79525e-12
-2.40859e-10
-1.60329e-11
-2.34603e-10
-2.35189e-11
-2.26531e-10
-2.93434e-11
-2.17084e-10
-3.36454e-11
-2.0666e-10
-3.6594e-11
-1.95608e-10
-3.83706e-11
-1.84227e-10
-3.91609e-11
-1.72765e-10
-3.91413e-11
-1.61424e-10
-3.84768e-11
-1.5036e-10
-3.73154e-11
-1.39694e-10
-3.5787e-11
-1.29511e-10
-3.40031e-11
-1.1987e-10
-3.20569e-11
-1.10804e-10
-3.0024e-11
-1.02328e-10
-2.79648e-11
-9.44443e-11
-2.59272e-11
-8.71394e-11
-2.39448e-11
-8.03948e-11
-2.20448e-11
-7.41846e-11
-2.02431e-11
-6.84789e-11
-1.8551e-11
-6.32457e-11
-1.69738e-11
-5.84529e-11
-1.55137e-11
-5.4066e-11
-1.41684e-11
-5.00544e-11
-1.29347e-11
-4.63856e-11
-1.18074e-11
-4.30309e-11
-1.07801e-11
-3.9962e-11
-9.84625e-12
-3.71537e-11
-8.99885e-12
-3.45816e-11
-8.2307e-12
-3.22234e-11
-7.5355e-12
-3.00603e-11
-6.9067e-12
-2.80739e-11
-6.33782e-12
-2.62466e-11
-5.8231e-12
-2.45638e-11
-5.35753e-12
-2.30126e-11
-4.9363e-12
-2.15803e-11
-4.55475e-12
-2.02557e-11
-4.2088e-12
-1.90292e-11
-3.89504e-12
-1.7892e-11
-3.61028e-12
-1.68359e-11
-3.35138e-12
-1.58536e-11
-3.11565e-12
-1.49387e-11
-2.90085e-12
-1.40852e-11
-2.70495e-12
-1.32878e-11
-2.52603e-12
-1.25418e-11
-2.36238e-12
-1.1843e-11
-2.21256e-12
-1.11874e-11
-2.07522e-12
-1.05716e-11
-1.94916e-12
-9.99217e-12
-1.83334e-12
-9.44625e-12
-1.72688e-12
-8.93125e-12
-1.62893e-12
-8.44477e-12
-1.53863e-12
-7.98456e-12
-1.45528e-12
-7.54857e-12
-1.3783e-12
-7.13503e-12
-1.30725e-12
-6.74222e-12
-1.24162e-12
-6.36851e-12
-1.18098e-12
-6.0125e-12
-1.12488e-12
-5.67286e-12
-1.07292e-12
-5.34838e-12
-1.02484e-12
-5.03801e-12
-9.80343e-13
-4.74065e-12
-9.39131e-13
-4.45535e-12
-9.0097e-13
-4.18118e-12
-8.65703e-13
-3.91729e-12
-8.3311e-13
-3.6629e-12
-8.03092e-13
-3.41739e-12
-7.75409e-13
-3.18012e-12
-7.4979e-13
-2.9503e-12
-7.26106e-13
-2.72711e-12
-7.04335e-13
-2.51004e-12
-6.8456e-13
-2.29883e-12
-6.66674e-13
-2.09308e-12
-6.5035e-13
-1.89212e-12
-6.35377e-13
-1.69523e-12
-6.21771e-13
-1.50192e-12
-6.09667e-13
-1.31201e-12
-5.99108e-13
-1.12525e-12
-5.89905e-13
-9.41068e-13
-5.81851e-13
-7.58931e-13
-5.74935e-13
-5.78491e-13
-5.69244e-13
-3.9947e-13
-5.64824e-13
-2.21563e-13
-5.61622e-13
-4.43646e-14
-5.59524e-13
1.32565e-13
-5.58476e-13
3.09556e-13
-5.58516e-13
4.86933e-13
-5.5971e-13
6.65084e-13
-5.62077e-13
8.44368e-13
-5.6559e-13
1.02513e-12
-5.70239e-13
1.20771e-12
-5.76068e-13
1.39248e-12
-5.83119e-13
1.57985e-12
-5.9139e-13
1.77028e-12
-6.00894e-13
1.96413e-12
-6.11688e-13
2.16182e-12
-6.23844e-13
2.36377e-12
-6.37408e-13
2.57049e-12
-6.52412e-13
2.78246e-12
-6.68916e-13
3.0002e-12
-6.87039e-13
3.2242e-12
-7.06902e-13
3.45496e-12
-7.28551e-13
3.69311e-12
-7.52013e-13
3.93935e-12
-7.77401e-13
4.19437e-12
-8.04912e-13
4.45886e-12
-8.34728e-13
4.7335e-12
-8.66964e-13
5.01904e-12
-9.01734e-13
5.31641e-12
-9.39222e-13
5.62656e-12
-9.79658e-13
5.95051e-12
-1.02327e-12
6.28931e-12
-1.0703e-12
6.64407e-12
-1.12096e-12
7.01609e-12
-1.17554e-12
7.40678e-12
-1.23439e-12
7.81754e-12
-1.29796e-12
8.24992e-12
-1.36665e-12
8.70566e-12
-1.44086e-12
9.1867e-12
-1.52099e-12
9.69519e-12
-1.60761e-12
1.02333e-11
-1.70141e-12
1.08034e-11
-1.80303e-12
1.14082e-11
-1.91325e-12
1.20508e-11
-2.03289e-12
1.27344e-11
-2.16287e-12
1.34628e-11
-2.30434e-12
1.42398e-11
-2.45868e-12
1.50696e-11
-2.62714e-12
1.59568e-11
-2.81092e-12
1.69069e-11
-3.01145e-12
1.79263e-11
-3.23073e-12
1.90214e-11
-3.47127e-12
2.01994e-11
-3.73553e-12
2.14682e-11
-4.0259e-12
2.28367e-11
-4.3451e-12
2.43153e-11
-4.69643e-12
2.59149e-11
-5.08367e-12
2.76477e-11
-5.51089e-12
2.95274e-11
-5.98251e-12
3.1569e-11
-6.50343e-12
3.37893e-11
-7.07899e-12
3.62069e-11
-7.71506e-12
3.8842e-11
-8.41809e-12
4.1717e-11
-9.19487e-12
4.48561e-11
-1.00525e-11
4.82858e-11
-1.09985e-11
5.20347e-11
-1.20403e-11
5.61337e-11
-1.31854e-11
6.06154e-11
-1.44413e-11
6.55141e-11
-1.58148e-11
7.08653e-11
-1.73108e-11
7.67053e-11
-1.89332e-11
8.30703e-11
-2.0683e-11
8.99948e-11
-2.25579e-11
9.75111e-11
-2.45512e-11
1.05646e-10
-2.66504e-11
1.14421e-10
-2.88351e-11
1.23845e-10
-3.10762e-11
1.33917e-10
-3.33336e-11
1.44618e-10
-3.55539e-11
1.55908e-10
-3.76692e-11
1.67718e-10
-3.95943e-11
1.79951e-10
-4.12251e-11
1.92472e-10
-4.2438e-11
2.05103e-10
-4.3089e-11
2.17616e-10
-4.30146e-11
2.29736e-10
-4.20339e-11
2.4113e-10
-3.99531e-11
2.5141e-10
-3.6572e-11
2.60136e-10
-3.16939e-11
2.66822e-10
-2.51391e-11
2.70949e-10
-1.67618e-11
2.71981e-10
-6.47293e-12
2.69392e-10
5.73298e-12
2.62701e-10
1.97465e-11
2.51514e-10
3.53056e-11
2.35577e-10
5.19548e-11
2.14843e-10
6.89999e-11
1.89535e-10
8.54627e-11
1.60234e-10
1.00037e-10
1.27956e-10
1.11055e-10
9.42359e-11
1.16474e-10
6.12209e-11
1.13893e-10
3.17823e-11
1.00633e-10
9.68808e-12
7.38852e-11
3.09178e-11
-9.05481e-12
3.7753e-11
-2.97909e-11
8.88361e-11
-5.7438e-11
1.20009e-10
-8.84243e-11
1.35139e-10
-1.2006e-10
1.37781e-10
-1.50358e-10
1.31149e-10
-1.77903e-10
1.18049e-10
-2.0176e-10
1.00845e-10
-2.21395e-10
8.14616e-11
-2.36591e-10
6.14074e-11
-2.47381e-10
4.18171e-11
-2.53988e-10
2.34984e-11
-2.56764e-10
6.98455e-12
-2.56144e-10
-7.41532e-12
-2.52607e-10
-1.95695e-11
-2.46645e-10
-2.94816e-11
-2.38736e-10
-3.72531e-11
-2.29329e-10
-4.30516e-11
-2.18835e-10
-4.70878e-11
-2.07617e-10
-4.95899e-11
-1.95985e-10
-5.07921e-11
-1.84204e-10
-5.09223e-11
-1.72488e-10
-5.01926e-11
-1.61008e-10
-4.87952e-11
-1.49895e-10
-4.68996e-11
-1.39247e-10
-4.46521e-11
-1.29129e-10
-4.21747e-11
-1.19584e-10
-3.95689e-11
-1.10634e-10
-3.69157e-11
-1.02283e-10
-3.42773e-11
-9.45251e-11
-3.17029e-11
-8.73429e-11
-2.92264e-11
-8.07136e-11
-2.68722e-11
-7.46087e-11
-2.46559e-11
-6.89971e-11
-2.25855e-11
-6.38465e-11
-2.06647e-11
-5.91229e-11
-1.88916e-11
-5.47951e-11
-1.72633e-11
-5.08298e-11
-1.57721e-11
-4.71978e-11
-1.44124e-11
-4.38698e-11
-1.31738e-11
-4.08196e-11
-1.20489e-11
-3.80225e-11
-1.10286e-11
-3.54546e-11
-1.01031e-11
-3.30957e-11
-9.26517e-12
-3.09267e-11
-8.50696e-12
-2.89297e-11
-7.82026e-12
-2.70889e-11
-7.19839e-12
-2.539e-11
-6.63528e-12
-2.38199e-11
-6.12485e-12
-2.23669e-11
-5.66177e-12
-2.10205e-11
-5.2415e-12
-1.9771e-11
-4.85973e-12
-1.86098e-11
-4.5125e-12
-1.75291e-11
-4.19633e-12
-1.65221e-11
-3.90815e-12
-1.55821e-11
-3.64508e-12
-1.47034e-11
-3.40461e-12
-1.3881e-11
-3.18462e-12
-1.31102e-11
-2.98321e-12
-1.23869e-11
-2.79858e-12
-1.17071e-11
-2.62907e-12
-1.10673e-11
-2.47326e-12
-1.04644e-11
-2.32993e-12
-9.89526e-12
-2.19799e-12
-9.35748e-12
-2.07639e-12
-8.84861e-12
-1.96418e-12
-8.3665e-12
-1.86059e-12
-7.90906e-12
-1.76491e-12
-7.47445e-12
-1.67651e-12
-7.06082e-12
-1.59474e-12
-6.66667e-12
-1.5191e-12
-6.29061e-12
-1.44909e-12
-5.93128e-12
-1.38426e-12
-5.58745e-12
-1.32425e-12
-5.25799e-12
-1.26869e-12
-4.94189e-12
-1.21728e-12
-4.63806e-12
-1.1697e-12
-4.34564e-12
-1.12572e-12
-4.06363e-12
-1.08509e-12
-3.79127e-12
-1.04771e-12
-3.52801e-12
-1.0133e-12
-3.2731e-12
-9.81501e-13
-3.02572e-12
-9.52099e-13
-2.78511e-12
-9.25125e-13
-2.55072e-12
-9.00696e-13
-2.32217e-12
-8.7869e-13
-2.09899e-12
-8.58735e-13
-1.88053e-12
-8.40566e-13
-1.66616e-12
-8.24196e-13
-1.45542e-12
-8.0973e-13
-1.24797e-12
-7.97136e-13
-1.0434e-12
-7.86269e-13
-8.41205e-13
-7.77024e-13
-6.40955e-13
-7.69393e-13
-4.42237e-13
-7.63398e-13
-2.44652e-13
-7.59012e-13
-4.78122e-14
-7.56155e-13
1.48683e-13
-7.54784e-13
3.45195e-13
-7.54916e-13
5.42128e-13
-7.5657e-13
7.39951e-13
-7.59765e-13
9.39045e-13
-7.64527e-13
1.13975e-12
-7.70869e-13
1.34245e-12
-7.78808e-13
1.5476e-12
-7.88362e-13
1.75568e-12
-7.99544e-13
1.96711e-12
-8.12383e-13
2.18232e-12
-8.26967e-13
2.40177e-12
-8.43408e-13
2.62596e-12
-8.6178e-13
2.85543e-12
-8.82116e-13
3.09066e-12
-9.04461e-13
3.33222e-12
-9.28927e-13
3.58075e-12
-9.55674e-13
3.83684e-12
-9.84842e-13
4.10109e-12
-1.01653e-12
4.37422e-12
-1.05084e-12
4.65699e-12
-1.08795e-12
4.95025e-12
-1.1281e-12
5.25477e-12
-1.17154e-12
5.57136e-12
-1.21846e-12
5.90096e-12
-1.26903e-12
6.24467e-12
-1.32351e-12
6.60362e-12
-1.38224e-12
6.979e-12
-1.44561e-12
7.37202e-12
-1.51395e-12
7.78405e-12
-1.5876e-12
8.21659e-12
-1.66698e-12
8.67122e-12
-1.75264e-12
9.14971e-12
-1.84517e-12
9.654e-12
-1.94513e-12
1.01862e-11
-2.0531e-12
1.07485e-11
-2.16983e-12
1.13434e-11
-2.29621e-12
1.19736e-11
-2.43318e-12
1.2642e-11
-2.58172e-12
1.33517e-11
-2.74297e-12
1.41064e-11
-2.91809e-12
1.49099e-11
-3.10837e-12
1.5767e-11
-3.31558e-12
1.66821e-11
-3.54171e-12
1.76605e-11
-3.78876e-12
1.87075e-11
-4.0587e-12
1.98297e-11
-4.35374e-12
2.10346e-11
-4.67679e-12
2.23299e-11
-5.0312e-12
2.37243e-11
-5.42047e-12
2.52274e-11
-5.84835e-12
2.68498e-11
-6.31907e-12
2.86036e-11
-6.83747e-12
3.05018e-11
-7.40896e-12
3.25588e-11
-8.03945e-12
3.47909e-11
-8.73535e-12
3.72157e-11
-9.50367e-12
3.98526e-11
-1.0352e-11
4.27233e-11
-1.12887e-11
4.5851e-11