/*--------------------------------*- C++ -*----------------------------------*\
| =========                 |                                                 |
| \\      /  F ield         | OpenFOAM: The Open Source CFD Toolbox           |
|  \\    /   O peration     | Version:  2412                                  |
|   \\  /    A nd           | Website:  www.openfoam.com                      |
|    \\/     M anipulation  |                                                 |
\*---------------------------------------------------------------------------*/
FoamFile
{
    version     2.0;
    format      ascii;
    arch        "LSB;label=32;scalar=64";
    class       volVectorField;
    location    "400";
    object      U;
}
// * * * * * * * * * * * * * * * * * * * * * * * * * * * * * * * * * * * * * //

dimensions      [0 1 -1 0 0 0 0];

internalField   nonuniform List<vector> 
40000
(
(2.22748e-08 -2.92531e-08 0)
(-4.48768e-07 8.52588e-08 0)
(-1.46737e-06 1.69049e-07 0)
(-2.78261e-06 2.04613e-07 0)
(-4.19767e-06 2.06128e-07 0)
(-5.57116e-06 1.87034e-07 0)
(-6.81058e-06 1.57375e-07 0)
(-7.86214e-06 1.23536e-07 0)
(-8.70116e-06 8.94557e-08 0)
(-9.32257e-06 5.75807e-08 0)
(-9.73496e-06 2.90057e-08 0)
(-9.95584e-06 4.48158e-09 0)
(-1.00074e-05 -1.59568e-08 0)
(-9.91469e-06 -3.241e-08 0)
(-9.7029e-06 -4.50858e-08 0)
(-9.39648e-06 -5.44569e-08 0)
(-9.01807e-06 -6.09097e-08 0)
(-8.58796e-06 -6.49151e-08 0)
(-8.12387e-06 -6.68677e-08 0)
(-7.64083e-06 -6.71291e-08 0)
(-7.15127e-06 -6.6108e-08 0)
(-6.66512e-06 -6.41373e-08 0)
(-6.19024e-06 -6.14635e-08 0)
(-5.73242e-06 -5.8367e-08 0)
(-5.29591e-06 -5.4951e-08 0)
(-4.8834e-06 -5.13457e-08 0)
(-4.49649e-06 -4.78046e-08 0)
(-4.13601e-06 -4.42631e-08 0)
(-3.80181e-06 -4.08389e-08 0)
(-3.49336e-06 -3.76134e-08 0)
(-3.20973e-06 -3.45705e-08 0)
(-2.94968e-06 -3.17084e-08 0)
(-2.71182e-06 -2.90877e-08 0)
(-2.49463e-06 -2.66534e-08 0)
(-2.29657e-06 -2.44209e-08 0)
(-2.11619e-06 -2.24263e-08 0)
(-1.95196e-06 -2.05518e-08 0)
(-1.80249e-06 -1.89144e-08 0)
(-1.66638e-06 -1.73392e-08 0)
(-1.54251e-06 -1.60564e-08 0)
(-1.42962e-06 -1.47686e-08 0)
(-1.32664e-06 -1.36883e-08 0)
(-1.23279e-06 -1.27115e-08 0)
(-1.14691e-06 -1.17859e-08 0)
(-1.06842e-06 -1.09588e-08 0)
(-9.9655e-07 -1.02192e-08 0)
(-9.30505e-07 -9.58342e-09 0)
(-8.69894e-07 -9.04303e-09 0)
(-8.14228e-07 -8.53278e-09 0)
(-7.6288e-07 -8.03908e-09 0)
(-7.15443e-07 -7.60575e-09 0)
(-6.71638e-07 -7.23391e-09 0)
(-6.31113e-07 -6.87647e-09 0)
(-5.93514e-07 -6.52768e-09 0)
(-5.58587e-07 -6.21302e-09 0)
(-5.2611e-07 -5.93677e-09 0)
(-4.95842e-07 -5.68736e-09 0)
(-4.67582e-07 -5.47233e-09 0)
(-4.41177e-07 -5.29473e-09 0)
(-4.16484e-07 -5.13308e-09 0)
(-3.93351e-07 -4.96261e-09 0)
(-3.71634e-07 -4.78646e-09 0)
(-3.51211e-07 -4.62336e-09 0)
(-3.31981e-07 -4.48578e-09 0)
(-3.13851e-07 -4.36745e-09 0)
(-2.9674e-07 -4.26008e-09 0)
(-2.80575e-07 -4.15883e-09 0)
(-2.65283e-07 -4.06483e-09 0)
(-2.50786e-07 -3.97815e-09 0)
(-2.37023e-07 -3.89734e-09 0)
(-2.2394e-07 -3.8182e-09 0)
(-2.11486e-07 -3.74223e-09 0)
(-1.9961e-07 -3.67262e-09 0)
(-1.88268e-07 -3.60979e-09 0)
(-1.77423e-07 -3.55489e-09 0)
(-1.67045e-07 -3.50588e-09 0)
(-1.57106e-07 -3.46417e-09 0)
(-1.47565e-07 -3.42239e-09 0)
(-1.38381e-07 -3.38136e-09 0)
(-1.29527e-07 -3.34039e-09 0)
(-1.20984e-07 -3.30037e-09 0)
(-1.12733e-07 -3.26378e-09 0)
(-1.04755e-07 -3.22996e-09 0)
(-9.70275e-08 -3.20393e-09 0)
(-8.9519e-08 -3.19602e-09 0)
(-8.22105e-08 -3.19946e-09 0)
(-7.50956e-08 -3.19117e-09 0)
(-6.81643e-08 -3.152e-09 0)
(-6.13863e-08 -3.09178e-09 0)
(-5.47212e-08 -3.05005e-09 0)
(-4.8155e-08 -3.05161e-09 0)
(-4.1705e-08 -3.07883e-09 0)
(-3.53817e-08 -3.09896e-09 0)
(-2.91598e-08 -3.09785e-09 0)
(-2.29946e-08 -3.08209e-09 0)
(-1.68602e-08 -3.06137e-09 0)
(-1.07553e-08 -3.04022e-09 0)
(-4.6806e-09 -3.0242e-09 0)
(1.37023e-09 -3.0208e-09 0)
(7.40839e-09 -3.031e-09 0)
(1.34499e-08 -3.04622e-09 0)
(1.95099e-08 -3.05597e-09 0)
(2.56023e-08 -3.05843e-09 0)
(3.17434e-08 -3.06019e-09 0)
(3.79472e-08 -3.06619e-09 0)
(4.42198e-08 -3.0757e-09 0)
(5.05663e-08 -3.08655e-09 0)
(5.69982e-08 -3.0969e-09 0)
(6.35357e-08 -3.10539e-09 0)
(7.02025e-08 -3.1126e-09 0)
(7.70164e-08 -3.12128e-09 0)
(8.399e-08 -3.1356e-09 0)
(9.11369e-08 -3.15849e-09 0)
(9.84716e-08 -3.18802e-09 0)
(1.06009e-07 -3.21966e-09 0)
(1.13767e-07 -3.25178e-09 0)
(1.21762e-07 -3.28376e-09 0)
(1.30014e-07 -3.31433e-09 0)
(1.38555e-07 -3.3442e-09 0)
(1.47416e-07 -3.37686e-09 0)
(1.5662e-07 -3.41544e-09 0)
(1.66186e-07 -3.45878e-09 0)
(1.76135e-07 -3.50338e-09 0)
(1.86497e-07 -3.55058e-09 0)
(1.97308e-07 -3.60579e-09 0)
(2.08602e-07 -3.67075e-09 0)
(2.20421e-07 -3.74121e-09 0)
(2.32809e-07 -3.81159e-09 0)
(2.4581e-07 -3.88216e-09 0)
(2.59476e-07 -3.95989e-09 0)
(2.73859e-07 -4.05013e-09 0)
(2.89005e-07 -4.15263e-09 0)
(3.04968e-07 -4.26414e-09 0)
(3.21816e-07 -4.37682e-09 0)
(3.39636e-07 -4.48082e-09 0)
(3.58527e-07 -4.57747e-09 0)
(3.7858e-07 -4.68627e-09 0)
(3.99881e-07 -4.8353e-09 0)
(4.22526e-07 -5.035e-09 0)
(4.46615e-07 -5.25908e-09 0)
(4.72274e-07 -5.4728e-09 0)
(4.99665e-07 -5.67012e-09 0)
(5.2896e-07 -5.85847e-09 0)
(5.60326e-07 -6.04188e-09 0)
(5.93972e-07 -6.24384e-09 0)
(6.30144e-07 -6.51719e-09 0)
(6.69088e-07 -6.9073e-09 0)
(7.11024e-07 -7.39451e-09 0)
(7.56184e-07 -7.89437e-09 0)
(8.04914e-07 -8.34399e-09 0)
(8.57671e-07 -8.76244e-09 0)
(9.14922e-07 -9.21577e-09 0)
(9.77114e-07 -9.75047e-09 0)
(1.04473e-06 -1.03708e-08 0)
(1.11832e-06 -1.10743e-08 0)
(1.19857e-06 -1.1876e-08 0)
(1.2862e-06 -1.27898e-08 0)
(1.38199e-06 -1.38211e-08 0)
(1.48684e-06 -1.49721e-08 0)
(1.6017e-06 -1.62403e-08 0)
(1.72764e-06 -1.7627e-08 0)
(1.86586e-06 -1.91475e-08 0)
(2.01764e-06 -2.08246e-08 0)
(2.18434e-06 -2.2677e-08 0)
(2.36744e-06 -2.47168e-08 0)
(2.56848e-06 -2.69475e-08 0)
(2.78906e-06 -2.93744e-08 0)
(3.03089e-06 -3.20237e-08 0)
(3.29562e-06 -3.49152e-08 0)
(3.58486e-06 -3.80493e-08 0)
(3.9001e-06 -4.14213e-08 0)
(4.24261e-06 -4.49986e-08 0)
(4.61337e-06 -4.8741e-08 0)
(5.01295e-06 -5.26145e-08 0)
(5.44124e-06 -5.65385e-08 0)
(5.89734e-06 -6.04107e-08 0)
(6.37934e-06 -6.41134e-08 0)
(6.88401e-06 -6.74664e-08 0)
(7.40656e-06 -7.02686e-08 0)
(7.94039e-06 -7.22693e-08 0)
(8.4767e-06 -7.31594e-08 0)
(9.00431e-06 -7.26085e-08 0)
(9.50935e-06 -7.02248e-08 0)
(9.97512e-06 -6.55855e-08 0)
(1.0382e-05 -5.82102e-08 0)
(1.07077e-05 -4.76093e-08 0)
(1.09274e-05 -3.33449e-08 0)
(1.10145e-05 -1.50083e-08 0)
(1.09416e-05 7.65535e-09 0)
(1.06819e-05 3.47415e-08 0)
(1.02117e-05 6.60568e-08 0)
(9.51293e-06 1.00909e-07 0)
(8.5773e-06 1.37867e-07 0)
(7.41171e-06 1.74342e-07 0)
(6.04515e-06 2.05987e-07 0)
(4.53777e-06 2.25723e-07 0)
(2.99221e-06 2.22629e-07 0)
(1.56378e-06 1.82152e-07 0)
(4.65625e-07 8.9355e-08 0)
(-3.05027e-08 -3.63236e-08 0)
(-1.11438e-07 4.5124e-07 0)
(-1.59261e-06 1.49759e-06 0)
(-4.16353e-06 2.24395e-06 0)
(-7.34213e-06 2.60854e-06 0)
(-1.07369e-05 2.66423e-06 0)
(-1.40546e-05 2.5009e-06 0)
(-1.70862e-05 2.19865e-06 0)
(-1.96995e-05 1.81968e-06 0)
(-2.1824e-05 1.40982e-06 0)
(-2.34356e-05 1.00164e-06 0)
(-2.45441e-05 6.16623e-07 0)
(-2.51825e-05 2.68678e-07 0)
(-2.53987e-05 -3.47941e-08 0)
(-2.52487e-05 -2.90669e-07 0)
(-2.47915e-05 -4.98989e-07 0)
(-2.40857e-05 -6.62068e-07 0)
(-2.31867e-05 -7.83668e-07 0)
(-2.21452e-05 -8.68525e-07 0)
(-2.1006e-05 -9.21584e-07 0)
(-1.98078e-05 -9.47884e-07 0)
(-1.85832e-05 -9.52248e-07 0)
(-1.73585e-05 -9.39181e-07 0)
(-1.61549e-05 -9.12712e-07 0)
(-1.49883e-05 -8.76364e-07 0)
(-1.38706e-05 -8.33172e-07 0)
(-1.28101e-05 -7.85457e-07 0)
(-1.18117e-05 -7.35436e-07 0)
(-1.08782e-05 -6.84546e-07 0)
(-1.00103e-05 -6.34159e-07 0)
(-9.20705e-06 -5.85178e-07 0)
(-8.46663e-06 -5.38243e-07 0)
(-7.78633e-06 -4.93802e-07 0)
(-7.1629e-06 -4.5213e-07 0)
(-6.59265e-06 -4.13341e-07 0)
(-6.07193e-06 -3.77481e-07 0)
(-5.59697e-06 -3.44617e-07 0)
(-5.16406e-06 -3.14422e-07 0)
(-4.76961e-06 -2.87025e-07 0)
(-4.41026e-06 -2.61979e-07 0)
(-4.08286e-06 -2.39474e-07 0)
(-3.78426e-06 -2.18846e-07 0)
(-3.51194e-06 -2.0044e-07 0)
(-3.26334e-06 -1.8372e-07 0)
(-3.03595e-06 -1.68575e-07 0)
(-2.82804e-06 -1.55021e-07 0)
(-2.63765e-06 -1.42712e-07 0)
(-2.46282e-06 -1.31586e-07 0)
(-2.30222e-06 -1.2165e-07 0)
(-2.15455e-06 -1.12665e-07 0)
(-2.01844e-06 -1.04477e-07 0)
(-1.8928e-06 -9.70914e-08 0)
(-1.77672e-06 -9.04414e-08 0)
(-1.66925e-06 -8.43851e-08 0)
(-1.56959e-06 -7.88633e-08 0)
(-1.47707e-06 -7.38486e-08 0)
(-1.39104e-06 -6.92798e-08 0)
(-1.31089e-06 -6.50973e-08 0)
(-1.2361e-06 -6.12906e-08 0)
(-1.16622e-06 -5.78428e-08 0)
(-1.1008e-06 -5.4702e-08 0)
(-1.03949e-06 -5.18062e-08 0)
(-9.81967e-07 -4.91285e-08 0)
(-9.2793e-07 -4.6662e-08 0)
(-8.77077e-07 -4.44009e-08 0)
(-8.29131e-07 -4.2326e-08 0)
(-7.83871e-07 -4.04213e-08 0)
(-7.4111e-07 -3.86638e-08 0)
(-7.00655e-07 -3.70374e-08 0)
(-6.6231e-07 -3.55322e-08 0)
(-6.25906e-07 -3.41443e-08 0)
(-5.91303e-07 -3.2862e-08 0)
(-5.58374e-07 -3.16747e-08 0)
(-5.26986e-07 -3.05735e-08 0)
(-4.97019e-07 -2.95505e-08 0)
(-4.68374e-07 -2.86059e-08 0)
(-4.40963e-07 -2.77389e-08 0)
(-4.14697e-07 -2.6943e-08 0)
(-3.89473e-07 -2.62004e-08 0)
(-3.65202e-07 -2.55119e-08 0)
(-3.41815e-07 -2.48735e-08 0)
(-3.1926e-07 -2.42892e-08 0)
(-2.97481e-07 -2.37513e-08 0)
(-2.76425e-07 -2.32527e-08 0)
(-2.56043e-07 -2.27879e-08 0)
(-2.3625e-07 -2.23685e-08 0)
(-2.16952e-07 -2.20126e-08 0)
(-1.98107e-07 -2.17059e-08 0)
(-1.79718e-07 -2.14071e-08 0)
(-1.61796e-07 -2.10934e-08 0)
(-1.44285e-07 -2.07905e-08 0)
(-1.27072e-07 -2.05454e-08 0)
(-1.10096e-07 -2.03751e-08 0)
(-9.33586e-08 -2.02513e-08 0)
(-7.68538e-08 -2.01363e-08 0)
(-6.05287e-08 -2.00214e-08 0)
(-4.43278e-08 -1.99179e-08 0)
(-2.8232e-08 -1.98325e-08 0)
(-1.22345e-08 -1.97705e-08 0)
(3.69357e-09 -1.97405e-08 0)
(1.96058e-08 -1.97452e-08 0)
(3.55563e-08 -1.97795e-08 0)
(5.15733e-08 -1.98348e-08 0)
(6.76714e-08 -1.99058e-08 0)
(8.38838e-08 -1.99943e-08 0)
(1.00255e-07 -2.01068e-08 0)
(1.1681e-07 -2.02489e-08 0)
(1.33567e-07 -2.04239e-08 0)
(1.50557e-07 -2.06289e-08 0)
(1.67832e-07 -2.08559e-08 0)
(1.8545e-07 -2.11014e-08 0)
(2.03451e-07 -2.13701e-08 0)
(2.21859e-07 -2.16712e-08 0)
(2.40711e-07 -2.20133e-08 0)
(2.60061e-07 -2.23977e-08 0)
(2.7996e-07 -2.28206e-08 0)
(3.00453e-07 -2.32829e-08 0)
(3.21582e-07 -2.37867e-08 0)
(3.434e-07 -2.43285e-08 0)
(3.65973e-07 -2.49072e-08 0)
(3.89377e-07 -2.55308e-08 0)
(4.13679e-07 -2.62101e-08 0)
(4.38943e-07 -2.69488e-08 0)
(4.65229e-07 -2.77435e-08 0)
(4.92607e-07 -2.85967e-08 0)
(5.21168e-07 -2.95195e-08 0)
(5.51018e-07 -3.05199e-08 0)
(5.82273e-07 -3.16002e-08 0)
(6.15044e-07 -3.27605e-08 0)
(6.49433e-07 -3.40025e-08 0)
(6.85563e-07 -3.5337e-08 0)
(7.23579e-07 -3.67807e-08 0)
(7.63632e-07 -3.835e-08 0)
(8.05887e-07 -4.00583e-08 0)
(8.50528e-07 -4.19081e-08 0)
(8.97752e-07 -4.38915e-08 0)
(9.47766e-07 -4.60126e-08 0)
(1.00079e-06 -4.82962e-08 0)
(1.05709e-06 -5.07862e-08 0)
(1.11699e-06 -5.35336e-08 0)
(1.18082e-06 -5.65587e-08 0)
(1.24888e-06 -5.98541e-08 0)
(1.32154e-06 -6.34386e-08 0)
(1.39925e-06 -6.73453e-08 0)
(1.48242e-06 -7.15804e-08 0)
(1.57155e-06 -7.61559e-08 0)
(1.66724e-06 -8.11483e-08 0)
(1.77022e-06 -8.67028e-08 0)
(1.8813e-06 -9.2942e-08 0)
(2.0012e-06 -9.98689e-08 0)
(2.1307e-06 -1.07437e-07 0)
(2.27078e-06 -1.15686e-07 0)
(2.42259e-06 -1.24758e-07 0)
(2.5874e-06 -1.34809e-07 0)
(2.76659e-06 -1.45954e-07 0)
(2.96166e-06 -1.58297e-07 0)
(3.17431e-06 -1.71977e-07 0)
(3.40645e-06 -1.87148e-07 0)
(3.66019e-06 -2.03975e-07 0)
(3.93785e-06 -2.22643e-07 0)
(4.24194e-06 -2.43319e-07 0)
(4.57523e-06 -2.6617e-07 0)
(4.94074e-06 -2.91389e-07 0)
(5.34177e-06 -3.19176e-07 0)
(5.78184e-06 -3.49728e-07 0)
(6.26471e-06 -3.8323e-07 0)
(6.7943e-06 -4.19812e-07 0)
(7.37461e-06 -4.59533e-07 0)
(8.0098e-06 -5.02437e-07 0)
(8.70392e-06 -5.48496e-07 0)
(9.46083e-06 -5.97534e-07 0)
(1.0284e-05 -6.49248e-07 0)
(1.11764e-05 -7.03107e-07 0)
(1.21397e-05 -7.58313e-07 0)
(1.31748e-05 -8.13839e-07 0)
(1.42805e-05 -8.68281e-07 0)
(1.54537e-05 -9.19808e-07 0)
(1.66883e-05 -9.66184e-07 0)
(1.79749e-05 -1.00461e-06 0)
(1.93e-05 -1.03175e-06 0)
(2.06455e-05 -1.04375e-06 0)
(2.19877e-05 -1.03614e-06 0)
(2.32968e-05 -1.00405e-06 0)
(2.45369e-05 -9.42201e-07 0)
(2.56649e-05 -8.45164e-07 0)
(2.66313e-05 -7.07553e-07 0)
(2.73804e-05 -5.24439e-07 0)
(2.78516e-05 -2.91928e-07 0)
(2.79811e-05 -7.72362e-09 0)
(2.77049e-05 3.27881e-07 0)
(2.69631e-05 7.11041e-07 0)
(2.57049e-05 1.133e-06 0)
(2.38967e-05 1.57832e-06 0)
(2.15304e-05 2.02275e-06 0)
(1.86356e-05 2.43056e-06 0)
(1.52932e-05 2.75152e-06 0)
(1.16509e-05 2.91772e-06 0)
(7.93965e-06 2.84276e-06 0)
(4.4812e-06 2.43072e-06 0)
(1.69943e-06 1.60671e-06 0)
(1.13814e-07 4.68347e-07 0)
(-2.14869e-07 1.56155e-06 0)
(-2.50776e-06 4.1269e-06 0)
(-6.22667e-06 5.83561e-06 0)
(-1.07225e-05 6.67982e-06 0)
(-1.54922e-05 6.81903e-06 0)
(-2.01621e-05 6.43976e-06 0)
(-2.44563e-05 5.71458e-06 0)
(-2.81925e-05 4.78568e-06 0)
(-3.12662e-05 3.76317e-06 0)
(-3.36351e-05 2.72905e-06 0)
(-3.53035e-05 1.74055e-06 0)
(-3.63096e-05 8.35975e-07 0)
(-3.67138e-05 3.79398e-08 0)
(-3.65899e-05 -6.42644e-07 0)
(-3.6018e-05 -1.20352e-06 0)
(-3.50787e-05 -1.64865e-06 0)
(-3.38501e-05 -1.98623e-06 0)
(-3.24038e-05 -2.22711e-06 0)
(-3.08043e-05 -2.38355e-06 0)
(-2.91078e-05 -2.46826e-06 0)
(-2.73621e-05 -2.49344e-06 0)
(-2.56064e-05 -2.47078e-06 0)
(-2.38724e-05 -2.41085e-06 0)
(-2.21848e-05 -2.32275e-06 0)
(-2.05617e-05 -2.21482e-06 0)
(-1.90163e-05 -2.09363e-06 0)
(-1.75571e-05 -1.9647e-06 0)
(-1.61889e-05 -1.83253e-06 0)
(-1.49136e-05 -1.70059e-06 0)
(-1.37307e-05 -1.57148e-06 0)
(-1.2638e-05 -1.44719e-06 0)
(-1.16321e-05 -1.32904e-06 0)
(-1.07086e-05 -1.21782e-06 0)
(-9.86267e-06 -1.11397e-06 0)
(-9.0891e-06 -1.01785e-06 0)
(-8.38252e-06 -9.2916e-07 0)
(-7.73774e-06 -8.47904e-07 0)
(-7.14965e-06 -7.73709e-07 0)
(-6.61335e-06 -7.06109e-07 0)
(-6.12419e-06 -6.44822e-07 0)
(-5.67787e-06 -5.89166e-07 0)
(-5.27054e-06 -5.38954e-07 0)
(-4.89826e-06 -4.93481e-07 0)
(-4.55787e-06 -4.52375e-07 0)
(-4.24631e-06 -4.15378e-07 0)
(-3.96067e-06 -3.81921e-07 0)
(-3.69855e-06 -3.51678e-07 0)
(-3.45775e-06 -3.24419e-07 0)
(-3.2361e-06 -2.9977e-07 0)
(-3.03179e-06 -2.7746e-07 0)
(-2.84324e-06 -2.57292e-07 0)
(-2.66895e-06 -2.39016e-07 0)
(-2.50755e-06 -2.22419e-07 0)
(-2.35788e-06 -2.07367e-07 0)
(-2.21889e-06 -1.93705e-07 0)
(-2.0896e-06 -1.81253e-07 0)
(-1.96916e-06 -1.69879e-07 0)
(-1.85681e-06 -1.59488e-07 0)
(-1.75184e-06 -1.49989e-07 0)
(-1.65359e-06 -1.41295e-07 0)
(-1.56149e-06 -1.3334e-07 0)
(-1.47505e-06 -1.26057e-07 0)
(-1.39384e-06 -1.19369e-07 0)
(-1.31741e-06 -1.13208e-07 0)
(-1.24538e-06 -1.07532e-07 0)
(-1.1774e-06 -1.02311e-07 0)
(-1.11315e-06 -9.75031e-08 0)
(-1.05235e-06 -9.30557e-08 0)
(-9.94734e-07 -8.8936e-08 0)
(-9.40046e-07 -8.51314e-08 0)
(-8.88065e-07 -8.1625e-08 0)
(-8.38588e-07 -7.83912e-08 0)
(-7.91424e-07 -7.53932e-08 0)
(-7.46403e-07 -7.26151e-08 0)
(-7.03379e-07 -7.00425e-08 0)
(-6.62207e-07 -6.76688e-08 0)
(-6.22739e-07 -6.54722e-08 0)
(-5.84841e-07 -6.34304e-08 0)
(-5.48389e-07 -6.1545e-08 0)
(-5.1328e-07 -5.98066e-08 0)
(-4.79418e-07 -5.82155e-08 0)
(-4.46704e-07 -5.67587e-08 0)
(-4.15055e-07 -5.54244e-08 0)
(-3.84398e-07 -5.41863e-08 0)
(-3.54657e-07 -5.30158e-08 0)
(-3.25725e-07 -5.19353e-08 0)
(-2.97488e-07 -5.09869e-08 0)
(-2.69884e-07 -5.01772e-08 0)
(-2.429e-07 -4.94639e-08 0)
(-2.1651e-07 -4.87879e-08 0)
(-1.90641e-07 -4.81402e-08 0)
(-1.65199e-07 -4.7569e-08 0)
(-1.40109e-07 -4.71054e-08 0)
(-1.1532e-07 -4.67278e-08 0)
(-9.07858e-08 -4.64105e-08 0)
(-6.64531e-08 -4.61569e-08 0)
(-4.22833e-08 -4.59771e-08 0)
(-1.82499e-08 -4.58676e-08 0)
(5.69046e-09 -4.58152e-08 0)
(2.96039e-08 -4.58109e-08 0)
(5.35588e-08 -4.58636e-08 0)
(7.76073e-08 -4.59886e-08 0)
(1.01789e-07 -4.61843e-08 0)
(1.26148e-07 -4.64402e-08 0)
(1.50732e-07 -4.67582e-08 0)
(1.75582e-07 -4.71513e-08 0)
(2.00743e-07 -4.76273e-08 0)
(2.26276e-07 -4.81803e-08 0)
(2.52253e-07 -4.87994e-08 0)
(2.78739e-07 -4.94861e-08 0)
(3.05786e-07 -5.02545e-08 0)
(3.33441e-07 -5.11137e-08 0)
(3.61765e-07 -5.20632e-08 0)
(3.90833e-07 -5.31013e-08 0)
(4.20717e-07 -5.42337e-08 0)
(4.51487e-07 -5.54739e-08 0)
(4.83221e-07 -5.6833e-08 0)
(5.16007e-07 -5.83108e-08 0)
(5.49935e-07 -5.99044e-08 0)
(5.85099e-07 -6.16215e-08 0)
(6.21598e-07 -6.34778e-08 0)
(6.5954e-07 -6.54897e-08 0)
(6.99027e-07 -6.76669e-08 0)
(7.40168e-07 -7.00156e-08 0)
(7.83095e-07 -7.25435e-08 0)
(8.2796e-07 -7.52606e-08 0)
(8.7493e-07 -7.8186e-08 0)
(9.24176e-07 -8.13449e-08 0)
(9.75864e-07 -8.47531e-08 0)
(1.03018e-06 -8.84219e-08 0)
(1.08731e-06 -9.23733e-08 0)
(1.14749e-06 -9.66397e-08 0)
(1.21098e-06 -1.01259e-07 0)
(1.27806e-06 -1.06267e-07 0)
(1.34905e-06 -1.11698e-07 0)
(1.42427e-06 -1.17586e-07 0)
(1.50403e-06 -1.2396e-07 0)
(1.5887e-06 -1.30846e-07 0)
(1.67871e-06 -1.38311e-07 0)
(1.77457e-06 -1.46455e-07 0)
(1.8768e-06 -1.55354e-07 0)
(1.98596e-06 -1.65082e-07 0)
(2.10272e-06 -1.75755e-07 0)
(2.22781e-06 -1.87477e-07 0)
(2.36195e-06 -2.00295e-07 0)
(2.50594e-06 -2.14242e-07 0)
(2.66071e-06 -2.29453e-07 0)
(2.82742e-06 -2.46195e-07 0)
(3.00735e-06 -2.64736e-07 0)
(3.20181e-06 -2.85248e-07 0)
(3.41224e-06 -3.07881e-07 0)
(3.64024e-06 -3.32844e-07 0)
(3.88769e-06 -3.60427e-07 0)
(4.15663e-06 -3.90949e-07 0)
(4.44932e-06 -4.2473e-07 0)
(4.76829e-06 -4.6212e-07 0)
(5.11632e-06 -5.035e-07 0)
(5.4965e-06 -5.49304e-07 0)
(5.91224e-06 -6.00011e-07 0)
(6.36728e-06 -6.56109e-07 0)
(6.86569e-06 -7.18087e-07 0)
(7.41189e-06 -7.86444e-07 0)
(8.01063e-06 -8.61663e-07 0)
(8.667e-06 -9.44204e-07 0)
(9.38641e-06 -1.03451e-06 0)
(1.01745e-05 -1.13294e-06 0)
(1.10371e-05 -1.23964e-06 0)
(1.19798e-05 -1.35461e-06 0)
(1.30084e-05 -1.47762e-06 0)
(1.4128e-05 -1.60808e-06 0)
(1.53434e-05 -1.74501e-06 0)
(1.66581e-05 -1.88689e-06 0)
(1.80742e-05 -2.03148e-06 0)
(1.95919e-05 -2.17579e-06 0)
(2.12088e-05 -2.31593e-06 0)
(2.29191e-05 -2.44684e-06 0)
(2.47128e-05 -2.56238e-06 0)
(2.65751e-05 -2.65502e-06 0)
(2.8485e-05 -2.71584e-06 0)
(3.04149e-05 -2.7346e-06 0)
(3.23292e-05 -2.69968e-06 0)
(3.41839e-05 -2.59838e-06 0)
(3.59259e-05 -2.41727e-06 0)
(3.7493e-05 -2.1427e-06 0)
(3.8814e-05 -1.76163e-06 0)
(3.98098e-05 -1.2626e-06 0)
(4.03956e-05 -6.37212e-07 0)
(4.04833e-05 1.18197e-07 0)
(3.99863e-05 1.00027e-06 0)
(3.88257e-05 1.9959e-06 0)
(3.69376e-05 3.07912e-06 0)
(3.42834e-05 4.20715e-06 0)
(3.08621e-05 5.31606e-06 0)
(2.67245e-05 6.31577e-06 0)
(2.1989e-05 7.0856e-06 0)
(1.6859e-05 7.47106e-06 0)
(1.1639e-05 7.28635e-06 0)
(6.73812e-06 6.3331e-06 0)
(2.70083e-06 4.44749e-06 0)
(2.27552e-07 1.65658e-06 0)
(-2.72018e-07 3.07436e-06 0)
(-3.08951e-06 7.57971e-06 0)
(-7.57418e-06 1.04508e-05 0)
(-1.2944e-05 1.18596e-05 0)
(-1.86201e-05 1.20932e-05 0)
(-2.41832e-05 1.14537e-05 0)
(-2.93202e-05 1.02178e-05 0)
(-3.38201e-05 8.61878e-06 0)
(-3.7557e-05 6.84194e-06 0)
(-4.04746e-05 5.0287e-06 0)
(-4.25704e-05 3.28104e-06 0)
(-4.38818e-05 1.66899e-06 0)
(-4.44741e-05 2.3574e-07 0)
(-4.44294e-05 -9.96049e-07 0)
(-4.38389e-05 -2.01946e-06 0)
(-4.2796e-05 -2.83933e-06 0)
(-4.13919e-05 -3.46821e-06 0)
(-3.97121e-05 -3.92392e-06 0)
(-3.78338e-05 -4.22714e-06 0)
(-3.5825e-05 -4.39977e-06 0)
(-3.37442e-05 -4.46342e-06 0)
(-3.16399e-05 -4.4386e-06 0)
(-2.95515e-05 -4.34425e-06 0)
(-2.75104e-05 -4.19695e-06 0)
(-2.55401e-05 -4.01141e-06 0)
(-2.36577e-05 -3.79993e-06 0)
(-2.18746e-05 -3.57273e-06 0)
(-2.0198e-05 -3.33811e-06 0)
(-1.8631e-05 -3.10245e-06 0)
(-1.71741e-05 -2.87079e-06 0)
(-1.58253e-05 -2.64689e-06 0)
(-1.4581e-05 -2.43323e-06 0)
(-1.34364e-05 -2.2316e-06 0)
(-1.2386e-05 -2.04295e-06 0)
(-1.14239e-05 -1.86779e-06 0)
(-1.05437e-05 -1.70595e-06 0)
(-9.73943e-06 -1.55747e-06 0)
(-9.00479e-06 -1.42146e-06 0)
(-8.3341e-06 -1.29759e-06 0)
(-7.72171e-06 -1.18485e-06 0)
(-7.16231e-06 -1.0827e-06 0)
(-6.65125e-06 -9.90079e-07 0)
(-6.1838e-06 -9.06329e-07 0)
(-5.756e-06 -8.30689e-07 0)
(-5.36421e-06 -7.62227e-07 0)
(-5.00482e-06 -7.00403e-07 0)
(-4.67472e-06 -6.44672e-07 0)
(-4.37125e-06 -5.94281e-07 0)
(-4.09184e-06 -5.48656e-07 0)
(-3.83421e-06 -5.07404e-07 0)
(-3.59631e-06 -4.70068e-07 0)
(-3.37628e-06 -4.36191e-07 0)
(-3.17252e-06 -4.05437e-07 0)
(-2.98353e-06 -3.77516e-07 0)
(-2.80796e-06 -3.52133e-07 0)
(-2.64458e-06 -3.29024e-07 0)
(-2.49234e-06 -3.07972e-07 0)
(-2.35029e-06 -2.88755e-07 0)
(-2.21753e-06 -2.71163e-07 0)
(-2.09328e-06 -2.55034e-07 0)
(-1.97682e-06 -2.40257e-07 0)
(-1.86751e-06 -2.2672e-07 0)
(-1.76477e-06 -2.14299e-07 0)
(-1.66807e-06 -2.02874e-07 0)
(-1.57692e-06 -1.92355e-07 0)
(-1.49089e-06 -1.82665e-07 0)
(-1.40958e-06 -1.73732e-07 0)
(-1.33261e-06 -1.65483e-07 0)
(-1.25966e-06 -1.57855e-07 0)
(-1.19044e-06 -1.50804e-07 0)
(-1.12464e-06 -1.44294e-07 0)
(-1.06201e-06 -1.3828e-07 0)
(-1.00229e-06 -1.32714e-07 0)
(-9.45289e-07 -1.27564e-07 0)
(-8.90811e-07 -1.22797e-07 0)
(-8.38673e-07 -1.18388e-07 0)
(-7.88682e-07 -1.14302e-07 0)
(-7.40682e-07 -1.10523e-07 0)
(-6.94522e-07 -1.07028e-07 0)
(-6.50066e-07 -1.03804e-07 0)
(-6.07196e-07 -1.00829e-07 0)
(-5.65784e-07 -9.80921e-08 0)
(-5.25705e-07 -9.55931e-08 0)
(-4.86841e-07 -9.33141e-08 0)
(-4.49105e-07 -9.12084e-08 0)
(-4.12425e-07 -8.92401e-08 0)
(-3.767e-07 -8.743e-08 0)
(-3.4181e-07 -8.58238e-08 0)
(-3.07662e-07 -8.44267e-08 0)
(-2.74191e-07 -8.31939e-08 0)
(-2.41355e-07 -8.20783e-08 0)
(-2.09094e-07 -8.1073e-08 0)
(-1.77311e-07 -8.01979e-08 0)
(-1.45909e-07 -7.94599e-08 0)
(-1.14828e-07 -7.8848e-08 0)
(-8.40162e-08 -7.83622e-08 0)
(-5.34192e-08 -7.80142e-08 0)
(-2.29765e-08 -7.78035e-08 0)
(7.37732e-09 -7.77111e-08 0)
(3.77051e-08 -7.772e-08 0)
(6.80673e-08 -7.78349e-08 0)
(9.85319e-08 -7.80734e-08 0)
(1.29168e-07 -7.84407e-08 0)
(1.60037e-07 -7.89313e-08 0)
(1.91189e-07 -7.9546e-08 0)
(2.22674e-07 -8.0292e-08 0)
(2.54557e-07 -8.11717e-08 0)
(2.8692e-07 -8.21824e-08 0)
(3.19847e-07 -8.33235e-08 0)
(3.53408e-07 -8.46052e-08 0)
(3.8767e-07 -8.60451e-08 0)
(4.22707e-07 -8.7653e-08 0)
(4.58601e-07 -8.94277e-08 0)
(4.95441e-07 -9.13701e-08 0)
(5.33308e-07 -9.3489e-08 0)
(5.72289e-07 -9.57966e-08 0)
(6.12487e-07 -9.83068e-08 0)
(6.54021e-07 -1.01032e-07 0)
(6.97007e-07 -1.03986e-07 0)
(7.41557e-07 -1.07179e-07 0)
(7.87791e-07 -1.10625e-07 0)
(8.35839e-07 -1.14348e-07 0)
(8.85844e-07 -1.18373e-07 0)
(9.37954e-07 -1.22721e-07 0)
(9.92339e-07 -1.27406e-07 0)
(1.04918e-06 -1.32446e-07 0)
(1.10868e-06 -1.3787e-07 0)
(1.17104e-06 -1.43722e-07 0)
(1.23649e-06 -1.5004e-07 0)
(1.30528e-06 -1.5686e-07 0)
(1.37764e-06 -1.64223e-07 0)
(1.45387e-06 -1.72174e-07 0)
(1.53427e-06 -1.80756e-07 0)
(1.6192e-06 -1.9002e-07 0)
(1.70905e-06 -2.00045e-07 0)
(1.80422e-06 -2.10931e-07 0)
(1.90518e-06 -2.22777e-07 0)
(2.01238e-06 -2.35647e-07 0)
(2.12634e-06 -2.49615e-07 0)
(2.24768e-06 -2.64803e-07 0)
(2.37705e-06 -2.81339e-07 0)
(2.51514e-06 -2.99342e-07 0)
(2.66274e-06 -3.18994e-07 0)
(2.8208e-06 -3.40538e-07 0)
(2.99035e-06 -3.64223e-07 0)
(3.17245e-06 -3.90235e-07 0)
(3.36819e-06 -4.18735e-07 0)
(3.57891e-06 -4.49974e-07 0)
(3.80615e-06 -4.84323e-07 0)
(4.05163e-06 -5.22197e-07 0)
(4.31719e-06 -5.64001e-07 0)
(4.60484e-06 -6.10152e-07 0)
(4.91685e-06 -6.61141e-07 0)
(5.25579e-06 -7.17538e-07 0)
(5.62446e-06 -7.79948e-07 0)
(6.02601e-06 -8.49021e-07 0)
(6.46387e-06 -9.25465e-07 0)
(6.94183e-06 -1.01003e-06 0)
(7.46406e-06 -1.10354e-06 0)
(8.03514e-06 -1.20684e-06 0)
(8.66004e-06 -1.32084e-06 0)
(9.34415e-06 -1.44641e-06 0)
(1.00933e-05 -1.58442e-06 0)
(1.09135e-05 -1.73565e-06 0)
(1.18112e-05 -1.9008e-06 0)
(1.27932e-05 -2.08041e-06 0)
(1.38664e-05 -2.27475e-06 0)
(1.50374e-05 -2.48372e-06 0)
(1.63127e-05 -2.70676e-06 0)
(1.76984e-05 -2.94264e-06 0)
(1.91993e-05 -3.18936e-06 0)
(2.08193e-05 -3.44398e-06 0)
(2.25601e-05 -3.70225e-06 0)
(2.44209e-05 -3.95852e-06 0)
(2.63977e-05 -4.20547e-06 0)
(2.84822e-05 -4.43381e-06 0)
(3.0661e-05 -4.63212e-06 0)
(3.29147e-05 -4.78668e-06 0)
(3.52163e-05 -4.88132e-06 0)
(3.7531e-05 -4.89757e-06 0)
(3.98143e-05 -4.81472e-06 0)
(4.2012e-05 -4.61033e-06 0)
(4.40591e-05 -4.26085e-06 0)
(4.58803e-05 -3.74271e-06 0)
(4.73903e-05 -3.03383e-06 0)
(4.84953e-05 -2.11546e-06 0)
(4.90955e-05 -9.74828e-07 0)
(4.90893e-05 3.91858e-07 0)
(4.83779e-05 1.97553e-06 0)
(4.68734e-05 3.74962e-06 0)
(4.45072e-05 5.66481e-06 0)
(4.12419e-05 7.643e-06 0)
(3.70842e-05 9.57076e-06 0)
(3.21004e-05 1.12926e-05 0)
(2.64328e-05 1.26057e-05 0)
(2.03161e-05 1.32571e-05 0)
(1.40954e-05 1.2949e-05 0)
(8.22972e-06 1.13605e-05 0)
(3.34639e-06 8.19401e-06 0)
(2.91653e-07 3.28933e-06 0)
(-2.94135e-07 4.81117e-06 0)
(-3.37947e-06 1.1521e-05 0)
(-8.28368e-06 1.56876e-05 0)
(-1.41436e-05 1.77163e-05 0)
(-2.03351e-05 1.80543e-05 0)
(-2.64136e-05 1.71347e-05 0)
(-3.20477e-05 1.53458e-05 0)
(-3.70118e-05 1.3016e-05 0)
(-4.1168e-05 1.04106e-05 0)
(-4.44507e-05 7.73474e-06 0)
(-4.68506e-05 5.13972e-06 0)
(-4.84016e-05 2.73112e-06 0)
(-4.91681e-05 5.7642e-07 0)
(-4.92341e-05 -1.28721e-06 0)
(-4.86944e-05 -2.8463e-06 0)
(-4.7648e-05 -4.10485e-06 0)
(-4.61923e-05 -5.07936e-06 0)
(-4.44194e-05 -5.79459e-06 0)
(-4.24137e-05 -6.27997e-06 0)
(-4.025e-05 -6.56703e-06 0)
(-3.79931e-05 -6.6878e-06 0)
(-3.56977e-05 -6.67241e-06 0)
(-3.34084e-05 -6.54913e-06 0)
(-3.1161e-05 -6.34316e-06 0)
(-2.89831e-05 -6.07643e-06 0)
(-2.68946e-05 -5.7678e-06 0)
(-2.491e-05 -5.43299e-06 0)
(-2.30381e-05 -5.0847e-06 0)
(-2.12836e-05 -4.733e-06 0)
(-1.96479e-05 -4.38584e-06 0)
(-1.81299e-05 -4.04886e-06 0)
(-1.67261e-05 -3.72638e-06 0)
(-1.5432e-05 -3.42111e-06 0)
(-1.4242e-05 -3.13488e-06 0)
(-1.31497e-05 -2.86835e-06 0)
(-1.21488e-05 -2.62191e-06 0)
(-1.12324e-05 -2.39516e-06 0)
(-1.03941e-05 -2.18729e-06 0)
(-9.62761e-06 -1.99766e-06 0)
(-8.9267e-06 -1.82485e-06 0)
(-8.28568e-06 -1.66797e-06 0)
(-7.69921e-06 -1.52565e-06 0)
(-7.16232e-06 -1.39676e-06 0)
(-6.6703e-06 -1.28026e-06 0)
(-6.21911e-06 -1.17485e-06 0)
(-5.80506e-06 -1.07949e-06 0)
(-5.42449e-06 -9.93341e-07 0)
(-5.07417e-06 -9.15459e-07 0)
(-4.7514e-06 -8.44993e-07 0)
(-4.45363e-06 -7.81205e-07 0)
(-4.17847e-06 -7.234e-07 0)
(-3.92382e-06 -6.70975e-07 0)
(-3.68787e-06 -6.234e-07 0)
(-3.46893e-06 -5.80158e-07 0)
(-3.26543e-06 -5.40795e-07 0)
(-3.07602e-06 -5.0494e-07 0)
(-2.89946e-06 -4.72261e-07 0)
(-2.73463e-06 -4.42429e-07 0)
(-2.5805e-06 -4.1514e-07 0)
(-2.43622e-06 -3.90145e-07 0)
(-2.30097e-06 -3.67235e-07 0)
(-2.174e-06 -3.46218e-07 0)
(-2.05462e-06 -3.26918e-07 0)
(-1.94223e-06 -3.09175e-07 0)
(-1.83626e-06 -2.92845e-07 0)
(-1.73623e-06 -2.77792e-07 0)
(-1.64167e-06 -2.63902e-07 0)
(-1.55214e-06 -2.51082e-07 0)
(-1.46727e-06 -2.39248e-07 0)
(-1.38672e-06 -2.28313e-07 0)
(-1.31016e-06 -2.18208e-07 0)
(-1.23725e-06 -2.08856e-07 0)
(-1.16774e-06 -2.00203e-07 0)
(-1.10139e-06 -1.92196e-07 0)
(-1.03796e-06 -1.84787e-07 0)
(-9.77239e-07 -1.77926e-07 0)
(-9.1902e-07 -1.71571e-07 0)
(-8.63116e-07 -1.65702e-07 0)
(-8.0935e-07 -1.60277e-07 0)
(-7.57561e-07 -1.55277e-07 0)
(-7.07606e-07 -1.50658e-07 0)
(-6.59358e-07 -1.46387e-07 0)
(-6.1268e-07 -1.42456e-07 0)
(-5.6741e-07 -1.38859e-07 0)
(-5.23415e-07 -1.35585e-07 0)
(-4.80616e-07 -1.32594e-07 0)
(-4.38946e-07 -1.29847e-07 0)
(-3.98294e-07 -1.27344e-07 0)
(-3.58525e-07 -1.25097e-07 0)
(-3.19529e-07 -1.23106e-07 0)
(-2.81238e-07 -1.21356e-07 0)
(-2.43599e-07 -1.19816e-07 0)
(-2.06522e-07 -1.18474e-07 0)
(-1.69901e-07 -1.17332e-07 0)
(-1.33656e-07 -1.16392e-07 0)
(-9.77333e-08 -1.15649e-07 0)
(-6.2067e-08 -1.15104e-07 0)
(-2.65751e-08 -1.14753e-07 0)
(8.8278e-09 -1.14587e-07 0)
(4.42085e-08 -1.14603e-07 0)
(7.96248e-08 -1.148e-07 0)
(1.15151e-07 -1.15184e-07 0)
(1.50874e-07 -1.15758e-07 0)
(1.86867e-07 -1.16527e-07 0)
(2.23189e-07 -1.17498e-07 0)
(2.59906e-07 -1.18675e-07 0)
(2.97095e-07 -1.20054e-07 0)
(3.3485e-07 -1.21632e-07 0)
(3.73256e-07 -1.23418e-07 0)
(4.12389e-07 -1.25427e-07 0)
(4.5233e-07 -1.27675e-07 0)
(4.93173e-07 -1.30171e-07 0)
(5.35019e-07 -1.32923e-07 0)
(5.77966e-07 -1.35943e-07 0)
(6.2211e-07 -1.39248e-07 0)
(6.67554e-07 -1.42848e-07 0)
(7.14414e-07 -1.46752e-07 0)
(7.62823e-07 -1.50981e-07 0)
(8.12915e-07 -1.55565e-07 0)
(8.64829e-07 -1.60529e-07 0)
(9.18703e-07 -1.65893e-07 0)
(9.74683e-07 -1.7168e-07 0)
(1.03293e-06 -1.77927e-07 0)
(1.09363e-06 -1.84667e-07 0)
(1.15699e-06 -1.91935e-07 0)
(1.22321e-06 -1.99766e-07 0)
(1.2925e-06 -2.08202e-07 0)
(1.36512e-06 -2.17293e-07 0)
(1.44132e-06 -2.27099e-07 0)
(1.52139e-06 -2.37682e-07 0)
(1.60561e-06 -2.49119e-07 0)
(1.69433e-06 -2.61485e-07 0)
(1.78792e-06 -2.74849e-07 0)
(1.88677e-06 -2.89286e-07 0)
(1.99131e-06 -3.04892e-07 0)
(2.10199e-06 -3.2179e-07 0)
(2.21934e-06 -3.40136e-07 0)
(2.34394e-06 -3.60084e-07 0)
(2.4764e-06 -3.81775e-07 0)
(2.6174e-06 -4.05387e-07 0)
(2.76773e-06 -4.31133e-07 0)
(2.92819e-06 -4.59204e-07 0)
(3.09963e-06 -4.89802e-07 0)
(3.28308e-06 -5.232e-07 0)
(3.47971e-06 -5.59773e-07 0)
(3.69081e-06 -5.99945e-07 0)
(3.91775e-06 -6.44096e-07 0)
(4.162e-06 -6.92595e-07 0)
(4.42526e-06 -7.45903e-07 0)
(4.70944e-06 -8.04597e-07 0)
(5.01668e-06 -8.69317e-07 0)
(5.34929e-06 -9.40737e-07 0)
(5.70982e-06 -1.0196e-06 0)
(6.10115e-06 -1.10674e-06 0)
(6.52647e-06 -1.20308e-06 0)
(6.98929e-06 -1.3096e-06 0)
(7.4935e-06 -1.42741e-06 0)
(8.04335e-06 -1.55766e-06 0)
(8.64348e-06 -1.70154e-06 0)
(9.29898e-06 -1.86034e-06 0)
(1.00154e-05 -2.03536e-06 0)
(1.07986e-05 -2.22791e-06 0)
(1.1655e-05 -2.43926e-06 0)
(1.25913e-05 -2.67057e-06 0)
(1.36145e-05 -2.92277e-06 0)
(1.47318e-05 -3.19654e-06 0)
(1.59505e-05 -3.49217e-06 0)
(1.72778e-05 -3.80933e-06 0)
(1.87203e-05 -4.14702e-06 0)
(2.02843e-05 -4.50319e-06 0)
(2.19744e-05 -4.87452e-06 0)
(2.3794e-05 -5.25628e-06 0)
(2.57442e-05 -5.64179e-06 0)
(2.78229e-05 -6.02216e-06 0)
(3.00246e-05 -6.38605e-06 0)
(3.23386e-05 -6.71913e-06 0)
(3.47487e-05 -7.00389e-06 0)
(3.72319e-05 -7.21946e-06 0)
(3.9757e-05 -7.34138e-06 0)
(4.22839e-05 -7.34185e-06 0)
(4.47625e-05 -7.18997e-06 0)
(4.71317e-05 -6.85254e-06 0)
(4.93197e-05 -6.29506e-06 0)
(5.12435e-05 -5.48338e-06 0)
(5.281e-05 -4.38607e-06 0)
(5.39178e-05 -2.97721e-06 0)
(5.44605e-05 -1.24037e-06 0)
(5.43304e-05 8.26912e-07 0)
(5.34247e-05 3.20756e-06 0)
(5.16536e-05 5.85843e-06 0)
(4.89495e-05 8.70298e-06 0)
(4.52787e-05 1.16232e-05 0)
(4.06552e-05 1.44514e-05 0)
(3.51555e-05 1.6962e-05 0)
(2.89349e-05 1.88653e-05 0)
(2.22438e-05 1.98049e-05 0)
(1.54474e-05 1.93633e-05 0)
(9.03239e-06 1.70797e-05 0)
(3.67673e-06 1.24863e-05 0)