/*--------------------------------*- C++ -*----------------------------------*\
| =========                 |                                                 |
| \\      /  F ield         | OpenFOAM: The Open Source CFD Toolbox           |
|  \\    /   O peration     | Version:  2412                                  |
|   \\  /    A nd           | Website:  www.openfoam.com                      |
|    \\/     M anipulation  |                                                 |
\*---------------------------------------------------------------------------*/
FoamFile
{
    version     2.0;
    format      ascii;
    arch        "LSB;label=32;scalar=64";
    class       volScalarField;
    location    "100";
    object      p;
}
// * * * * * * * * * * * * * * * * * * * * * * * * * * * * * * * * * * * * * //

dimensions      [0 2 -2 0 0 0 0];

internalField   nonuniform List<scalar> 
900
(
0
-7.67238e-06
3.63443e-05
0.000123774
0.00023762
0.000363629
0.000489573
0.000607548
0.00071225
0.000801105
0.000873224
0.000928765
0.000968372
0.000992804
0.00100262
0.000998088
0.00097906
0.000944975
0.000894992
0.000828158
0.000743703
0.000641496
0.000522654
0.000390272
0.000250241
0.00011189
-1.15973e-05
-0.000104547
-0.000149093
-0.000136752
-0.00360375
-0.00361962
-0.00358754
-0.00351585
-0.00342048
-0.00331314
-0.00320366
-0.00309933
-0.00300501
-0.00292356
-0.00285641
-0.00280398
-0.00276621
-0.0027428
-0.00273348
-0.00273811
-0.00275682
-0.00278998
-0.00283806
-0.00290151
-0.00298049
-0.00307445
-0.00318177
-0.00329912
-0.00342098
-0.00353925
-0.00364304
-0.00371981
-0.00375249
-0.00373255
-0.0108213
-0.0108433
-0.0108224
-0.0107655
-0.0106877
-0.0105985
-0.0105058
-0.010416
-0.0103336
-0.0102615
-0.0102012
-0.0101537
-0.0101193
-0.0100978
-0.0100894
-0.010094
-0.0101116
-0.0101425
-0.0101869
-0.0102448
-0.0103161
-0.0103998
-0.0104939
-0.0105953
-0.0106989
-0.0107979
-0.0108831
-0.0109445
-0.0109659
-0.0109398
-0.0215165
-0.0215409
-0.0215285
-0.0214848
-0.021423
-0.0213506
-0.0212745
-0.0211997
-0.0211303
-0.0210689
-0.0210171
-0.020976
-0.020946
-0.0209274
-0.0209202
-0.0209245
-0.0209403
-0.0209678
-0.0210071
-0.0210578
-0.0211196
-0.0211915
-0.0212714
-0.0213564
-0.0214422
-0.0215231
-0.0215914
-0.021639
-0.0216517
-0.0216233
-0.0354853
-0.0355073
-0.0355006
-0.0354688
-0.035422
-0.0353661
-0.0353064
-0.0352471
-0.0351914
-0.0351416
-0.0350992
-0.0350654
-0.0350406
-0.0350252
-0.0350195
-0.0350234
-0.0350371
-0.0350605
-0.0350936
-0.035136
-0.0351872
-0.0352461
-0.035311
-0.0353792
-0.0354471
-0.0355102
-0.0355626
-0.0355979
-0.0356049
-0.0355791
-0.0524735
-0.0524901
-0.0524867
-0.0524652
-0.0524323
-0.0523922
-0.0523485
-0.0523045
-0.0522625
-0.0522246
-0.0521921
-0.0521659
-0.0521467
-0.0521348
-0.0521306
-0.052134
-0.0521452
-0.0521641
-0.0521905
-0.0522241
-0.0522642
-0.0523098
-0.0523593
-0.0524108
-0.0524613
-0.0525075
-0.052545
-0.0525694
-0.0525731
-0.0525534
-0.0721905
-0.0722005
-0.0721989
-0.0721863
-0.072166
-0.0721404
-0.0721117
-0.0720822
-0.0720536
-0.0720273
-0.0720045
-0.071986
-0.0719724
-0.071964
-0.0719613
-0.0719642
-0.0719728
-0.071987
-0.0720066
-0.0720312
-0.0720602
-0.0720927
-0.0721273
-0.0721627
-0.0721967
-0.0722271
-0.0722511
-0.072266
-0.0722679
-0.0722558
-0.0943256
-0.0943287
-0.0943282
-0.0943231
-0.0943139
-0.0943012
-0.0942862
-0.09427
-0.0942537
-0.0942383
-0.0942246
-0.0942134
-0.0942051
-0.0942001
-0.0941987
-0.094201
-0.0942071
-0.0942167
-0.0942297
-0.0942457
-0.0942641
-0.0942842
-0.094305
-0.0943255
-0.0943444
-0.0943604
-0.0943724
-0.0943793
-0.0943802
-0.0943759
-0.118561
-0.118559
-0.118559
-0.11856
-0.11856
-0.118558
-0.118555
-0.118551
-0.118545
-0.11854
-0.118534
-0.118529
-0.118526
-0.118524
-0.118524
-0.118526
-0.118529
-0.118535
-0.118541
-0.11855
-0.118558
-0.118567
-0.118576
-0.118583
-0.118588
-0.118592
-0.118594
-0.118594
-0.118594
-0.118597
-0.144587
-0.144579
-0.14458
-0.144586
-0.144594
-0.144601
-0.144608
-0.144613
-0.144617
-0.144619
-0.144621
-0.144622
-0.144623
-0.144623
-0.144624
-0.144625
-0.144627
-0.144628
-0.14463
-0.144631
-0.144631
-0.144631
-0.144628
-0.144624
-0.144619
-0.144612
-0.144606
-0.1446
-0.1446
-0.144608
-0.172108
-0.172097
-0.172098
-0.172108
-0.172121
-0.172136
-0.17215
-0.172163
-0.172174
-0.172183
-0.172191
-0.172196
-0.1722
-0.172203
-0.172205
-0.172205
-0.172205
-0.172203
-0.1722
-0.172195
-0.172189
-0.17218
-0.172169
-0.172157
-0.172142
-0.172127
-0.172114
-0.172104
-0.172104
-0.172116
-0.200855
-0.200842
-0.200843
-0.200855
-0.200873
-0.200893
-0.200912
-0.200931
-0.200947
-0.200962
-0.200973
-0.200982
-0.200989
-0.200993
-0.200996
-0.200996
-0.200994
-0.200989
-0.200983
-0.200973
-0.200961
-0.200947
-0.200929
-0.20091
-0.200889
-0.200868
-0.20085
-0.200837
-0.200837
-0.200851
-0.230587
-0.230573
-0.230575
-0.230588
-0.230608
-0.230631
-0.230654
-0.230677
-0.230697
-0.230714
-0.230729
-0.230741
-0.230749
-0.230755
-0.230757
-0.230757
-0.230754
-0.230747
-0.230738
-0.230725
-0.230709
-0.23069
-0.230668
-0.230644
-0.230619
-0.230594
-0.230573
-0.230559
-0.230557
-0.230573
-0.261095
-0.261082
-0.261083
-0.261098
-0.261119
-0.261143
-0.261168
-0.261193
-0.261215
-0.261235
-0.261251
-0.261264
-0.261274
-0.26128
-0.261283
-0.261282
-0.261278
-0.26127
-0.261259
-0.261244
-0.261225
-0.261203
-0.261179
-0.261152
-0.261124
-0.261098
-0.261075
-0.261059
-0.261058
-0.261074
-0.292205
-0.292192
-0.292194
-0.292208
-0.292229
-0.292253
-0.292279
-0.292304
-0.292327
-0.292348
-0.292365
-0.292379
-0.292389
-0.292395
-0.292398
-0.292397
-0.292392
-0.292384
-0.292371
-0.292355
-0.292335
-0.292312
-0.292286
-0.292258
-0.292229
-0.292202
-0.292179
-0.292164
-0.292162
-0.292177
-0.32377
-0.323759
-0.323761
-0.323774
-0.323794
-0.323818
-0.323843
-0.323867
-0.32389
-0.32391
-0.323928
-0.323941
-0.323952
-0.323958
-0.323961
-0.323959
-0.323954
-0.323945
-0.323932
-0.323916
-0.323895
-0.323872
-0.323846
-0.323818
-0.32379
-0.323763
-0.323741
-0.323726
-0.323725
-0.323738
-0.355676
-0.355665
-0.355667
-0.35568
-0.355698
-0.35572
-0.355744
-0.355767
-0.355789
-0.355808
-0.355825
-0.355838
-0.355848
-0.355854
-0.355856
-0.355855
-0.35585
-0.355841
-0.355828
-0.355811
-0.355791
-0.355768
-0.355743
-0.355717
-0.35569
-0.355665
-0.355644
-0.35563
-0.355628
-0.355641
-0.387829
-0.38782
-0.387821
-0.387833
-0.387849
-0.387869
-0.387891
-0.387912
-0.387932
-0.38795
-0.387966
-0.387978
-0.387988
-0.387993
-0.387995
-0.387994
-0.387989
-0.38798
-0.387967
-0.387952
-0.387933
-0.387911
-0.387887
-0.387862
-0.387838
-0.387815
-0.387796
-0.387783
-0.387782
-0.387792
-0.420159
-0.420152
-0.420153
-0.420163
-0.420178
-0.420196
-0.420215
-0.420234
-0.420252
-0.420269
-0.420283
-0.420294
-0.420303
-0.420308
-0.42031
-0.420308
-0.420303
-0.420295
-0.420283
-0.420268
-0.42025
-0.42023
-0.420209
-0.420186
-0.420164
-0.420143
-0.420126
-0.420115
-0.420114
-0.420123
-0.452615
-0.452609
-0.45261
-0.452618
-0.452631
-0.452646
-0.452663
-0.45268
-0.452697
-0.452711
-0.452724
-0.452734
-0.452742
-0.452746
-0.452748
-0.452746
-0.452741
-0.452733
-0.452722
-0.452709
-0.452693
-0.452674
-0.452655
-0.452635
-0.452615
-0.452597
-0.452582
-0.452572
-0.452571
-0.452579
-0.485157
-0.485151
-0.485152
-0.485159
-0.48517
-0.485183
-0.485198
-0.485213
-0.485227
-0.48524
-0.485251
-0.48526
-0.485267
-0.485271
-0.485272
-0.48527
-0.485266
-0.485258
-0.485248
-0.485236
-0.485221
-0.485205
-0.485188
-0.48517
-0.485152
-0.485137
-0.485124
-0.485116
-0.485115
-0.485121
-0.517756
-0.517752
-0.517752
-0.517758
-0.517767
-0.517779
-0.517791
-0.517804
-0.517816
-0.517828
-0.517837
-0.517845
-0.517851
-0.517854
-0.517855
-0.517854
-0.517849
-0.517843
-0.517834
-0.517822
-0.517809
-0.517795
-0.517779
-0.517764
-0.517748
-0.517735
-0.517724
-0.517717
-0.517716
-0.517722
-0.550394
-0.55039
-0.550391
-0.550396
-0.550403
-0.550413
-0.550423
-0.550434
-0.550445
-0.550455
-0.550463
-0.55047
-0.550475
-0.550478
-0.550479
-0.550477
-0.550473
-0.550467
-0.550459
-0.550449
-0.550437
-0.550424
-0.55041
-0.550397
-0.550384
-0.550372
-0.550363
-0.550357
-0.550356
-0.550361
-0.583056
-0.583053
-0.583054
-0.583058
-0.583064
-0.583072
-0.583081
-0.583091
-0.5831
-0.583108
-0.583116
-0.583122
-0.583126
-0.583128
-0.583129
-0.583127
-0.583123
-0.583118
-0.58311
-0.583101
-0.583091
-0.583079
-0.583067
-0.583055
-0.583044
-0.583034
-0.583026
-0.583021
-0.583021
-0.583025
-0.615734
-0.615731
-0.615732
-0.615735
-0.615741
-0.615748
-0.615755
-0.615763
-0.615771
-0.615779
-0.615785
-0.615791
-0.615794
-0.615796
-0.615797
-0.615795
-0.615792
-0.615786
-0.615779
-0.615771
-0.615762
-0.615751
-0.615741
-0.61573
-0.61572
-0.615712
-0.615705
-0.615701
-0.6157
-0.615704
-0.648421
-0.648419
-0.648419
-0.648422
-0.648427
-0.648433
-0.64844
-0.648447
-0.648454
-0.648461
-0.648467
-0.648471
-0.648475
-0.648476
-0.648476
-0.648475
-0.648472
-0.648467
-0.64846
-0.648452
-0.648444
-0.648434
-0.648425
-0.648415
-0.648406
-0.648399
-0.648393
-0.648389
-0.648389
-0.648391
-0.681113
-0.681112
-0.681112
-0.681115
-0.681119
-0.681124
-0.681131
-0.681137
-0.681144
-0.68115
-0.681155
-0.681159
-0.681163
-0.681164
-0.681164
-0.681163
-0.681159
-0.681155
-0.681149
-0.681141
-0.681133
-0.681124
-0.681115
-0.681106
-0.681098
-0.681091
-0.681086
-0.681083
-0.681082
-0.681084
-0.713809
-0.713807
-0.713808
-0.71381
-0.713814
-0.713819
-0.713825
-0.713832
-0.713838
-0.713844
-0.713849
-0.713853
-0.713856
-0.713857
-0.713857
-0.713856
-0.713853
-0.713848
-0.713842
-0.713835
-0.713827
-0.713818
-0.71381
-0.713801
-0.713793
-0.713787
-0.713782
-0.713779
-0.713778
-0.71378
-0.746505
-0.746504
-0.746505
-0.746507
-0.746511
-0.746516
-0.746522
-0.746528
-0.746535
-0.746541
-0.746546
-0.74655
-0.746553
-0.746555
-0.746555
-0.746553
-0.74655
-0.746545
-0.746539
-0.746532
-0.746524
-0.746515
-0.746506
-0.746498
-0.74649
-0.746483
-0.746478
-0.746475
-0.746475
-0.746476
-0.779203
-0.779202
-0.779202
-0.779205
-0.779209
-0.779214
-0.779221
-0.779227
-0.779234
-0.77924
-0.779246
-0.77925
-0.779253
-0.779255
-0.779255
-0.779254
-0.77925
-0.779245
-0.779239
-0.779232
-0.779223
-0.779214
-0.779205
-0.779196
-0.779188
-0.779181
-0.779175
-0.779172
-0.779172
-0.779173
)
;

boundaryField
{
    floor
    {
        type            calculated;
        value           nonuniform List<scalar> 
30
(
0.000910148
0.000907102
0.000954852
0.00104552
0.00116216
0.00129054
0.00141847
0.00153807
0.00164407
0.00173393
0.0018068
0.00186289
0.00190287
0.00192753
0.00193744
0.00193289
0.00191372
0.00187937
0.00182896
0.00176151
0.00167621
0.00157289
0.00145262
0.00131846
0.00117629
0.0010354
0.000908972
0.000812667
0.00076437
0.00077261
)
;
    }
    ceiling
    {
        type            calculated;
        value           nonuniform List<scalar> 
30
(
-0.795553
-0.795552
-0.795553
-0.795555
-0.795559
-0.795565
-0.795571
-0.795578
-0.795584
-0.795591
-0.795596
-0.795601
-0.795604
-0.795605
-0.795605
-0.795604
-0.7956
-0.795596
-0.795589
-0.795582
-0.795573
-0.795564
-0.795555
-0.795546
-0.795538
-0.795531
-0.795526
-0.795523
-0.795522
-0.795523
)
;
    }
    fixedWalls
    {
        type            calculated;
        value           nonuniform List<scalar> 
60
(
0
-0.00360375
-0.0108213
-0.0215165
-0.0354853
-0.0524735
-0.0721905
-0.0943256
-0.118561
-0.144587
-0.172108
-0.200855
-0.230587
-0.261095
-0.292205
-0.32377
-0.355676
-0.387829
-0.420159
-0.452615
-0.485157
-0.517756
-0.550394
-0.583056
-0.615734
-0.648421
-0.681113
-0.713809
-0.746505
-0.779203
-0.000136752
-0.00373255
-0.0109398
-0.0216233
-0.0355791
-0.0525534
-0.0722558
-0.0943759
-0.118597
-0.144608
-0.172116
-0.200851
-0.230573
-0.261074
-0.292177
-0.323738
-0.355641
-0.387792
-0.420123
-0.452579
-0.485121
-0.517722
-0.550361
-0.583025
-0.615704
-0.648391
-0.681084
-0.71378
-0.746476
-0.779173
)
;
    }
    frontAndBack
    {
        type            empty;
    }
}


// ************************************************************************* //
