/*--------------------------------*- C++ -*----------------------------------*\
| =========                 |                                                 |
| \\      /  F ield         | OpenFOAM: The Open Source CFD Toolbox           |
|  \\    /   O peration     | Version:  2412                                  |
|   \\  /    A nd           | Website:  www.openfoam.com                      |
|    \\/     M anipulation  |                                                 |
\*---------------------------------------------------------------------------*/
FoamFile
{
    version     2.0;
    format      ascii;
    arch        "LSB;label=32;scalar=64";
    class       volScalarField;
    location    "100";
    object      p_rgh;
}
// * * * * * * * * * * * * * * * * * * * * * * * * * * * * * * * * * * * * * //

dimensions      [0 2 -2 0 0 0 0];

internalField   nonuniform List<scalar> 
900
(
0.000910148
0.000907102
0.000954852
0.00104552
0.00116216
0.00129054
0.00141847
0.00153807
0.00164407
0.00173393
0.0018068
0.00186289
0.00190287
0.00192753
0.00193744
0.00193289
0.00191372
0.00187937
0.00182896
0.00176151
0.00167621
0.00157289
0.00145262
0.00131846
0.00117629
0.0010354
0.000908972
0.000812667
0.00076437
0.00077261
0.00452187
0.00454554
0.00461013
0.00471022
0.00483013
0.00495835
0.00508532
0.00520397
0.00530971
0.00540002
0.00547383
0.00553108
0.00557214
0.00559755
0.00560775
0.00560296
0.00558302
0.00554746
0.0054956
0.0054267
0.00534028
0.00523648
0.00511659
0.00498359
0.00484282
0.00470215
0.00457238
0.00446601
0.00440021
0.00438374
0.0114555
0.0115364
0.0116434
0.0117758
0.011919
0.0120641
0.0122034
0.0123314
0.0124443
0.0125401
0.0126181
0.0126784
0.0127217
0.0127485
0.0127592
0.0127543
0.0127334
0.012696
0.0126415
0.012569
0.0124778
0.0123678
0.01224
0.0120968
0.0119425
0.0117835
0.0116285
0.0114878
0.0113773
0.0113048
0.0213157
0.0214783
0.0216485
0.021831
0.0220135
0.0221888
0.0223509
0.0224961
0.0226217
0.0227268
0.0228114
0.0228763
0.0229225
0.022951
0.0229626
0.0229575
0.0229355
0.0228961
0.0228381
0.0227603
0.0226616
0.0225412
0.022399
0.0222366
0.022057
0.0218648
0.0216671
0.0214722
0.0212942
0.0211389
0.0335668
0.0338271
0.0340731
0.034316
0.0345462
0.0347587
0.0349493
0.0351158
0.035257
0.0353732
0.0354656
0.0355358
0.0355854
0.0356159
0.0356283
0.0356232
0.0356001
0.0355584
0.0354965
0.0354128
0.0353051
0.0351719
0.0350121
0.0348256
0.0346141
0.0343806
0.0341302
0.0338691
0.0336085
0.0333519
0.0475755
0.0479375
0.0482627
0.048568
0.0488479
0.0490988
0.0493187
0.0495069
0.049664
0.0497914
0.0498914
0.0499666
0.0500194
0.0500518
0.0500651
0.0500599
0.0500359
0.0499921
0.0499266
0.049837
0.0497206
0.0495745
0.0493966
0.0491853
0.0489406
0.0486637
0.0483578
0.0480271
0.047679
0.0473147
0.0626658
0.0631222
0.0635205
0.063883
0.0642077
0.064493
0.0647387
0.0649457
0.0651161
0.0652528
0.065359
0.0654381
0.0654934
0.0655271
0.065541
0.0655359
0.0655113
0.0654661
0.0653979
0.0653037
0.0651801
0.0650232
0.0648297
0.0645965
0.0643221
0.0640058
0.0636488
0.0632534
0.062823
0.0623565
0.0781714
0.0787057
0.0791638
0.0795719
0.0799312
0.0802426
0.0805072
0.0807274
0.0809067
0.0810491
0.0811589
0.0812402
0.0812966
0.081331
0.0813453
0.0813403
0.0813156
0.0812698
0.0812003
0.0811037
0.0809758
0.0808119
0.0806076
0.0803588
0.0800619
0.079715
0.0793173
0.0788689
0.0783698
0.0778167
0.0934834
0.0940727
0.0945718
0.0950098
0.0953907
0.095717
0.0959912
0.0962173
0.0963999
0.0965437
0.0966539
0.096735
0.096791
0.0968251
0.0968393
0.0968345
0.0968104
0.0967652
0.0966964
0.0966
0.0964714
0.0963055
0.0960968
0.0958401
0.0955308
0.0951653
0.0947411
0.0942565
0.0937082
0.0930915
0.108086
0.108705
0.109224
0.109674
0.110062
0.110391
0.110665
0.110889
0.111069
0.111209
0.111317
0.111395
0.111449
0.111482
0.111496
0.111491
0.111468
0.111425
0.111359
0.111265
0.11114
0.110977
0.110771
0.110515
0.110205
0.109834
0.1094
0.108898
0.108323
0.107669
0.121582
0.122204
0.122722
0.123167
0.123547
0.123867
0.124132
0.124346
0.124517
0.124651
0.124751
0.124825
0.124875
0.124906
0.124919
0.124915
0.124894
0.124853
0.124792
0.124704
0.124586
0.124431
0.124234
0.123988
0.123686
0.123324
0.122895
0.122396
0.121818
0.121155
0.133699
0.1343
0.134798
0.135223
0.135583
0.135883
0.13613
0.13633
0.136487
0.136609
0.136701
0.136768
0.136814
0.136841
0.136853
0.136849
0.13683
0.136794
0.136738
0.136659
0.136551
0.136409
0.136226
0.135997
0.135714
0.135371
0.134962
0.134482
0.133922
0.133276
0.144286
0.144847
0.145311
0.145703
0.146033
0.146306
0.14653
0.146709
0.146849
0.146958
0.147039
0.147098
0.147138
0.147162
0.147172
0.147169
0.147153
0.147121
0.147072
0.147002
0.146907
0.14678
0.146616
0.146409
0.146152
0.145838
0.145461
0.145015
0.144491
0.143881
0.153303
0.153811
0.154228
0.154579
0.154872
0.155114
0.15531
0.155466
0.155588
0.155681
0.15575
0.1558
0.155834
0.155855
0.155864
0.155861
0.155848
0.155821
0.15578
0.15572
0.155638
0.155529
0.155387
0.155205
0.154978
0.154699
0.154362
0.15396
0.153484
0.152928
0.160798
0.161243
0.161609
0.161914
0.162167
0.162374
0.162541
0.162673
0.162775
0.162853
0.16291
0.162952
0.162979
0.162996
0.163004
0.163002
0.162991
0.16297
0.162936
0.162887
0.162819
0.162728
0.162607
0.162453
0.162259
0.162018
0.161725
0.161373
0.160954
0.160461
0.166882
0.167263
0.167574
0.167832
0.168044
0.168217
0.168355
0.168463
0.168547
0.16861
0.168656
0.168688
0.168711
0.168724
0.16873
0.168729
0.16872
0.168704
0.168678
0.168639
0.168584
0.16851
0.168412
0.168285
0.168123
0.167921
0.167673
0.167374
0.167014
0.16659
0.171712
0.172029
0.172286
0.172499
0.172672
0.172813
0.172924
0.17301
0.173076
0.173125
0.173161
0.173186
0.173203
0.173213
0.173217
0.173217
0.173211
0.173199
0.173179
0.17315
0.173108
0.17305
0.172972
0.17287
0.172739
0.172574
0.17237
0.172122
0.171822
0.171466
0.175463
0.17572
0.175928
0.176098
0.176237
0.176347
0.176434
0.176501
0.176551
0.176589
0.176615
0.176634
0.176646
0.176653
0.176657
0.176657
0.176653
0.176645
0.176631
0.17661
0.176578
0.176535
0.176475
0.176396
0.176293
0.176162
0.175999
0.175798
0.175554
0.175262
0.178315
0.178518
0.178682
0.178816
0.178923
0.179008
0.179074
0.179124
0.179162
0.179188
0.179207
0.17922
0.179229
0.179234
0.179236
0.179237
0.179235
0.17923
0.179221
0.179206
0.179185
0.179153
0.179109
0.17905
0.178971
0.17887
0.178742
0.178584
0.178389
0.178157
0.180439
0.180596
0.180723
0.180825
0.180906
0.18097
0.181018
0.181055
0.181081
0.181099
0.181112
0.181121
0.181126
0.181129
0.181131
0.181132
0.181131
0.181129
0.181124
0.181115
0.181101
0.181079
0.181048
0.181005
0.180947
0.180871
0.180774
0.180652
0.180501
0.180318
0.181989
0.182109
0.182204
0.18228
0.18234
0.182386
0.182421
0.182446
0.182464
0.182476
0.182484
0.182489
0.182492
0.182494
0.182495
0.182496
0.182497
0.182496
0.182494
0.18249
0.182481
0.182468
0.182447
0.182417
0.182375
0.18232
0.182248
0.182156
0.182041
0.181902
0.183099
0.183188
0.183258
0.183313
0.183357
0.183389
0.183413
0.183429
0.183441
0.183448
0.183452
0.183454
0.183456
0.183457
0.183458
0.183459
0.18346
0.183461
0.183461
0.18346
0.183456
0.183449
0.183436
0.183416
0.183388
0.183348
0.183296
0.183229
0.183143
0.183039
0.183878
0.183943
0.183994
0.184033
0.184063
0.184085
0.184101
0.184111
0.184117
0.184121
0.184122
0.184123
0.184123
0.184123
0.184124
0.184125
0.184127
0.184129
0.184131
0.184132
0.184131
0.184128
0.184122
0.18411
0.184091
0.184064
0.184028
0.183979
0.183917
0.18384
0.184416
0.184462
0.184498
0.184525
0.184545
0.184559
0.184569
0.184574
0.184577
0.184578
0.184578
0.184577
0.184576
0.184576
0.184577
0.184578
0.18458
0.184583
0.184586
0.184589
0.184591
0.184591
0.184588
0.184582
0.184571
0.184554
0.184529
0.184495
0.184451
0.184395
0.18478
0.184812
0.184837
0.184855
0.184868
0.184877
0.184882
0.184884
0.184884
0.184883
0.184882
0.18488
0.184879
0.184878
0.184879
0.18488
0.184883
0.184886
0.18489
0.184894
0.184897
0.1849
0.1849
0.184898
0.184893
0.184882
0.184866
0.184843
0.184813
0.184773
0.185023
0.185045
0.185062
0.185074
0.185082
0.185086
0.185088
0.185088
0.185086
0.185084
0.185081
0.185079
0.185077
0.185077
0.185077
0.185078
0.185081
0.185085
0.185089
0.185094
0.185098
0.185102
0.185105
0.185106
0.185105
0.1851
0.18509
0.185075
0.185054
0.185027
0.185184
0.185199
0.18521
0.185217
0.185221
0.185222
0.185222
0.18522
0.185217
0.185214
0.18521
0.185208
0.185206
0.185205
0.185205
0.185207
0.185209
0.185213
0.185218
0.185223
0.185229
0.185234
0.185239
0.185242
0.185243
0.185242
0.185237
0.185228
0.185214
0.185196
0.185292
0.185301
0.185307
0.185311
0.185312
0.185311
0.185309
0.185305
0.185301
0.185297
0.185294
0.18529
0.185288
0.185287
0.185287
0.185289
0.185292
0.185296
0.185301
0.185307
0.185313
0.18532
0.185326
0.185331
0.185334
0.185335
0.185334
0.18533
0.185321
0.185309
0.185366
0.185371
0.185374
0.185375
0.185374
0.185371
0.185367
0.185363
0.185358
0.185353
0.185348
0.185344
0.185342
0.185341
0.185341
0.185342
0.185345
0.18535
0.185355
0.185362
0.185369
0.185376
0.185384
0.18539
0.185396
0.1854
0.185401
0.1854
0.185396
0.185389
0.185423
0.185425
0.185426
0.185424
0.185421
0.185417
0.185411
0.185405
0.185398
0.185392
0.185387
0.185383
0.18538
0.185378
0.185378
0.18538
0.185383
0.185388
0.185394
0.185401
0.185409
0.185418
0.185427
0.185435
0.185443
0.185449
0.185453
0.185454
0.185454
0.18545
)
;

boundaryField
{
    floor
    {
        type            fixedFluxPressure;
        gradient        uniform 0;
        value           nonuniform List<scalar> 
30
(
0.000910148
0.000907102
0.000954852
0.00104552
0.00116216
0.00129054
0.00141847
0.00153807
0.00164407
0.00173393
0.0018068
0.00186289
0.00190287
0.00192753
0.00193744
0.00193289
0.00191372
0.00187937
0.00182896
0.00176151
0.00167621
0.00157289
0.00145262
0.00131846
0.00117629
0.0010354
0.000908972
0.000812667
0.00076437
0.00077261
)
;
    }
    ceiling
    {
        type            fixedFluxPressure;
        gradient        nonuniform List<scalar> 
30
(
0.0148572
0.0140323
0.0133048
0.0126773
0.0121449
0.0116998
0.0113332
0.0110358
0.0107986
0.010613
0.0104712
0.0103667
0.0102939
0.0102489
0.0102291
0.0102336
0.0102631
0.0103201
0.0104088
0.010535
0.0107063
0.0109319
0.0112222
0.011589
0.0120448
0.0126032
0.0132783
0.0140855
0.0150458
0.0162026
)
;
        value           nonuniform List<scalar> 
30
(
0.185447
0.185448
0.185447
0.185445
0.185441
0.185435
0.185429
0.185422
0.185416
0.185409
0.185404
0.185399
0.185396
0.185395
0.185395
0.185396
0.1854
0.185404
0.185411
0.185418
0.185427
0.185436
0.185445
0.185454
0.185462
0.185469
0.185474
0.185477
0.185478
0.185477
)
;
    }
    fixedWalls
    {
        type            fixedFluxPressure;
        gradient        uniform 0;
        value           nonuniform List<scalar> 
60
(
0.000910148
0.00452187
0.0114555
0.0213157
0.0335668
0.0475755
0.0626658
0.0781714
0.0934834
0.108086
0.121582
0.133699
0.144286
0.153303
0.160798
0.166882
0.171712
0.175463
0.178315
0.180439
0.181989
0.183099
0.183878
0.184416
0.18478
0.185023
0.185184
0.185292
0.185366
0.185423
0.00077261
0.00438374
0.0113048
0.0211389
0.0333519
0.0473147
0.0623565
0.0778167
0.0930915
0.107669
0.121155
0.133276
0.143881
0.152928
0.160461
0.16659
0.171466
0.175262
0.178157
0.180318
0.181902
0.183039
0.18384
0.184395
0.184773
0.185027
0.185196
0.185309
0.185389
0.18545
)
;
    }
    frontAndBack
    {
        type            empty;
    }
}


// ************************************************************************* //
