/*--------------------------------*- C++ -*----------------------------------*\
| =========                 |                                                 |
| \\      /  F ield         | OpenFOAM: The Open Source CFD Toolbox           |
|  \\    /   O peration     | Version:  2412                                  |
|   \\  /    A nd           | Website:  www.openfoam.com                      |
|    \\/     M anipulation  |                                                 |
\*---------------------------------------------------------------------------*/
FoamFile
{
    version     2.0;
    format      ascii;
    arch        "LSB;label=32;scalar=64";
    class       surfaceScalarField;
    location    "100";
    object      phi;
}
// * * * * * * * * * * * * * * * * * * * * * * * * * * * * * * * * * * * * * //

dimensions      [0 3 -1 0 0 0 0];

oriented        oriented;

internalField   nonuniform List<scalar> 
1740
(
-2.01919e-08
2.01651e-08
-5.68676e-08
3.66743e-08
-9.37303e-08
3.68574e-08
-1.21595e-07
2.78633e-08
-1.37368e-07
1.57637e-08
-1.4147e-07
4.14555e-09
-1.36142e-07
-5.33569e-09
-1.24036e-07
-1.2102e-08
-1.07679e-07
-1.63544e-08
-8.90735e-08
-1.86063e-08
-6.96086e-08
-1.94679e-08
-5.01e-08
-1.95121e-08
-3.09e-08
-1.92044e-08
-1.20193e-08
-1.88826e-08
6.73989e-09
-1.87643e-08
2.56782e-08
-1.89464e-08
4.50832e-08
-1.94116e-08
6.51087e-08
-2.00323e-08
8.56572e-08
-2.05574e-08
1.06247e-07
-2.06012e-08
1.25878e-07
-1.96445e-08
1.42921e-07
-1.70607e-08
1.551e-07
-1.21955e-08
1.59617e-07
-4.52964e-09
1.53553e-07
6.05754e-09
1.34654e-07
1.89038e-08
1.02684e-07
3.19872e-08
6.13937e-08
4.13056e-08
2.12074e-08
4.01995e-08
2.1216e-08
-4.26318e-08
6.28187e-08
-1.17524e-07
1.11564e-07
-1.92683e-07
1.12053e-07
-2.51054e-07
8.62178e-08
-2.85928e-07
5.06351e-08
-2.9737e-07
1.55743e-08
-2.89007e-07
-1.3681e-08
-2.65843e-07
-3.52422e-08
-2.3283e-07
-4.93502e-08
-1.94087e-07
-5.73401e-08
-1.52613e-07
-6.09399e-08
-1.10288e-07
-6.18332e-08
-6.80454e-08
-6.14389e-08
-2.61118e-08
-6.08108e-08
1.57476e-08
-6.06241e-08
5.79827e-08
-6.11856e-08
1.01009e-07
-6.2443e-08
1.44956e-07
-6.39839e-08
1.89409e-07
-6.50146e-08
2.33143e-07
-6.43399e-08
2.73878e-07
-6.03838e-08
3.08115e-07
-5.13011e-08
3.31169e-07
-3.52528e-08
3.3754e-07
-1.0909e-08
3.21811e-07
2.17732e-08
2.80246e-07
6.04587e-08
2.13261e-07
9.89743e-08
1.28772e-07
1.25811e-07
4.60646e-08
1.22927e-07
6.7291e-08
-4.97371e-08
1.12571e-07
-1.37424e-07
1.99252e-07
-2.26276e-07
2.00902e-07
-2.96685e-07
1.56642e-07
-3.40442e-07
9.44176e-08
-3.56924e-07
3.20122e-08
-3.49676e-07
-2.09367e-08
-3.24125e-07
-6.07875e-08
-2.85882e-07
-8.75966e-08
-2.39774e-07
-1.03454e-07
-1.89445e-07
-1.11273e-07
-1.37298e-07
-1.13985e-07
-8.46451e-08
-1.14099e-07
-3.19557e-08
-1.13508e-07
2.08481e-08
-1.13438e-07
7.41008e-08
-1.14449e-07
1.28091e-07
-1.16447e-07
1.82761e-07
-1.18671e-07
2.37396e-07
-1.19671e-07
2.90328e-07
-1.17294e-07
3.38666e-07
-1.08743e-07
3.78164e-07
-9.08147e-08
4.0332e-07
-6.0418e-08
4.07894e-07
-1.54787e-08
3.85994e-07
4.36896e-08
3.33921e-07
1.12546e-07
2.52867e-07
1.80037e-07
1.52432e-07
2.26255e-07
5.46606e-08
2.20708e-07
1.21966e-07
-4.63422e-08
1.58911e-07
-1.29582e-07
2.82475e-07
-2.15308e-07
2.86622e-07
-2.84703e-07
2.26036e-07
-3.2945e-07
1.39171e-07
-3.48256e-07
5.08497e-08
-3.43984e-07
-2.52105e-08
-3.21355e-07
-8.34219e-08
-2.85482e-07
-1.23468e-07
-2.40931e-07
-1.47998e-07
-1.91274e-07
-1.60924e-07
-1.38976e-07
-1.66278e-07
-8.54998e-08
-1.6757e-07
-3.15255e-08
-1.6748e-07
2.27907e-08
-1.67756e-07
7.7538e-08
-1.69198e-07
1.32758e-07
-1.71665e-07
1.88152e-07
-1.74063e-07
2.42795e-07
-1.74317e-07
2.9486e-07
-1.69366e-07
3.41399e-07
-1.5529e-07
3.7825e-07
-1.27677e-07
4.00194e-07
-8.23781e-08
4.01496e-07
-1.67873e-08
3.76958e-07
6.82355e-08
3.2364e-07
1.65876e-07
2.43314e-07
2.60379e-07
1.45604e-07
3.23972e-07
5.173e-08
3.14583e-07
1.73714e-07
-3.70571e-08
1.95961e-07
-1.05228e-07
3.5069e-07
-1.76961e-07
3.58347e-07
-2.36515e-07
2.85565e-07
-2.76511e-07
1.79135e-07
-2.95222e-07
6.95879e-08
-2.94443e-07
-2.59845e-08
-2.77627e-07
-1.00236e-07
-2.48733e-07
-1.52353e-07
-2.11449e-07
-1.8527e-07
-1.68784e-07
-2.03577e-07
-1.22933e-07
-2.12117e-07
-7.53266e-08
-2.15166e-07
-2.67772e-08
-2.16023e-07
2.23221e-08
-2.16852e-07
7.17737e-08
-2.18647e-07
1.21336e-07
-2.21224e-07
1.70487e-07
-2.23215e-07
2.18199e-07
-2.2203e-07
2.62726e-07
-2.1389e-07
3.01453e-07
-1.9401e-07
3.30862e-07
-1.57083e-07
3.46712e-07
-9.82287e-08
3.44506e-07
-1.45845e-08
3.20379e-07
9.2358e-08
2.72491e-07
2.1377e-07
2.02928e-07
3.2995e-07
1.20195e-07
4.06721e-07
4.21349e-08
3.92647e-07
2.15858e-07
-2.51451e-08
2.21082e-07
-7.30014e-08
3.98583e-07
-1.24878e-07
4.10218e-07
-1.69479e-07
3.30144e-07
-2.01035e-07
2.10699e-07
-2.17722e-07
8.62579e-08
-2.20136e-07
-2.35759e-08
-2.10247e-07
-1.10117e-07
-1.90568e-07
-1.72022e-07
-1.63599e-07
-2.12232e-07
-1.31511e-07
-2.35656e-07
-9.60265e-08
-2.47595e-07
-5.83972e-08
-2.52789e-07
-1.94839e-08
-2.54932e-07
2.01271e-08
-2.56461e-07
5.99771e-08
-2.58495e-07
9.95707e-08
-2.6082e-07
1.3822e-07
-2.61871e-07
1.74899e-07
-2.58714e-07
2.08109e-07
-2.47103e-07
2.35812e-07
-2.21715e-07
2.55451e-07
-1.76724e-07
2.64121e-07
-1.06894e-07
2.58911e-07
-9.37275e-09
2.37553e-07
1.13717e-07
1.9935e-07
2.51968e-07
1.46454e-07
3.82846e-07
8.548e-08
4.6771e-07
2.94048e-08
4.48722e-07
2.45261e-07
-1.2845e-08
2.3391e-07
-3.90777e-08
4.24818e-07
-6.91874e-08
4.40323e-07
-9.68071e-08
3.57735e-07
-1.18148e-07
2.32052e-07
-1.31459e-07
9.95547e-08
-1.36318e-07
-1.8715e-08
-1.33237e-07
-1.13186e-07
-1.23238e-07
-1.82008e-07
-1.07558e-07
-2.27903e-07
-8.74428e-08
-2.55763e-07
-6.40367e-08
-2.70994e-07
-3.83261e-08
-2.78495e-07
-1.11406e-08
-2.82117e-07
1.68118e-08
-2.84414e-07
4.48776e-08
-2.86559e-07
7.23754e-08
-2.88317e-07
9.8527e-08
-2.88023e-07
1.22395e-07
-2.8258e-07
1.42835e-07
-2.6754e-07
1.58495e-07
-2.37381e-07
1.67896e-07
-1.86132e-07
1.69557e-07
-1.08553e-07
1.62214e-07
-2.02723e-09
1.45181e-07
1.30758e-07
1.18804e-07
2.78352e-07
8.50474e-08
4.16598e-07
4.82643e-08
5.04501e-07
1.6008e-08
4.8097e-07
2.61264e-07
-1.62121e-09
2.35506e-07
-7.62796e-09
4.30813e-07
-1.6934e-08
4.49644e-07
-2.78735e-08
3.68684e-07
-3.8743e-08
2.4289e-07
-4.79643e-08
1.08772e-07
-5.43536e-08
-1.23139e-08
-5.71662e-08
-1.10363e-07
-5.60854e-08
-1.83081e-07
-5.11749e-08
-2.32807e-07
-4.27915e-08
-2.6414e-07
-3.14941e-08
-2.82285e-07
-1.79567e-08
-2.92029e-07
-2.91082e-09
-2.97163e-07
1.28911e-08
-3.00217e-07
2.86835e-08
-3.02351e-07
4.36836e-08
-3.03318e-07
5.71024e-08
-3.01443e-07
6.81587e-08
-2.93632e-07
7.61057e-08
-2.75481e-07
8.02986e-08
-2.41572e-07
8.02896e-08
-1.86124e-07
7.59245e-08
-1.04189e-07
6.74421e-08
6.46204e-09
5.55322e-08
1.42679e-07
4.13795e-08
2.92519e-07
2.65986e-08
4.31372e-07
1.32256e-08
5.17877e-07
3.5714e-09
4.90612e-07
2.64834e-07
7.71467e-09
2.27793e-07
1.88552e-08
4.19649e-07
2.74987e-08
4.40977e-07
3.13019e-08
3.64883e-07
3.01113e-08
2.44058e-07
2.51468e-08
1.13745e-07
1.81195e-08
-5.27658e-09
1.07463e-08
-1.02989e-07
4.4192e-09
-1.76757e-07
4.55376e-11
-2.28436e-07
-1.96486e-09
-2.62129e-07
-1.63704e-09
-2.82614e-07
6.75023e-10
-2.94343e-07
4.38682e-09
-3.00879e-07
8.77453e-09
-3.04608e-07
1.30451e-08
-3.06622e-07
1.64003e-08
-3.06675e-07
1.81113e-08
-3.03155e-07
1.75933e-08
-2.93112e-07
1.44973e-08
-2.72383e-07
8.82482e-09
-2.35897e-07
1.02621e-09
-1.7832e-07
-7.93967e-09
-9.52176e-08
-1.66218e-08
1.51499e-08
-2.3249e-08
1.4931e-07
-2.60482e-08
2.95333e-07
-2.38487e-08
4.29165e-07
-1.6727e-08
5.10755e-07
-6.92941e-09
4.80803e-07
2.57904e-07
1.47597e-08
2.13048e-07
3.91449e-08
3.95266e-07
6.19383e-08
4.18182e-07
7.76317e-08
3.49165e-07
8.46161e-08
2.37096e-07
8.36524e-08
1.14732e-07
7.67518e-08
1.63327e-09
6.62862e-08
-9.25207e-08
5.44084e-08
-1.64874e-07
4.27452e-08
-2.16765e-07
3.23049e-08
-2.51679e-07
2.35073e-08
-2.73811e-07
1.62972e-08
-2.87132e-07
1.02655e-08
-2.94848e-07
4.77709e-09
-2.99119e-07
-9.13867e-10
-3.00933e-07
-7.54599e-09
-3.00047e-07
-1.57322e-08
-2.94973e-07
-2.58415e-08
-2.8301e-07
-3.78581e-08
-2.60374e-07
-5.12408e-08
-2.22513e-07
-6.48393e-08
-1.6472e-07
-7.68491e-08
-8.3203e-08
-8.49393e-08
2.32479e-08
-8.66036e-08
1.50974e-07
-7.97354e-08
2.88474e-07
-6.36316e-08
4.13046e-07
-4.01144e-08
4.8723e-07
-1.50255e-08
4.55705e-07
2.4287e-07
1.94847e-08
1.93551e-07
5.30187e-08
3.61703e-07
8.58579e-08
3.85348e-07
1.10296e-07
3.2471e-07
1.23585e-07
2.23821e-07
1.26085e-07
1.12226e-07
1.19895e-07
7.80716e-09
1.0773e-07
-8.03691e-08
9.21929e-08
-1.49345e-07
7.53773e-08
-1.99952e-07
5.87068e-08
-2.3501e-07
4.29412e-08
-2.58052e-07
2.82832e-08
-2.72483e-07
1.45081e-08
-2.81081e-07
1.1111e-09
-2.85729e-07
-1.25471e-08
-2.87282e-07
-2.70882e-08
-2.85511e-07
-4.29723e-08
-2.7909e-07
-6.03535e-08
-2.65635e-07
-7.89111e-08
-2.41832e-07
-9.76946e-08
-2.03735e-07
-1.15051e-07
-1.47362e-07
-1.28628e-07
-6.96214e-08
-1.35546e-07
3.0178e-08
-1.32892e-07
1.48317e-07
-1.18451e-07
2.74036e-07
-9.19602e-08
3.86538e-07
-5.65542e-08
4.51819e-07
-2.06268e-08
4.19772e-07
2.22231e-07
2.21025e-08
1.71454e-07
6.09925e-08
3.22814e-07
9.99556e-08
3.46379e-07
1.30055e-07
2.94642e-07
1.4773e-07
2.06153e-07
1.53015e-07
1.06935e-07
1.4792e-07
1.2899e-08
1.35239e-07
-6.76856e-08
1.17758e-07
-1.3186e-07
9.78075e-08
-1.79994e-07
7.70549e-08
-2.14253e-07
5.64935e-08
-2.37492e-07
3.65336e-08
-2.52525e-07
1.71263e-08
-2.61674e-07
-2.07992e-09
-2.66522e-07
-2.15799e-08
-2.67787e-07
-4.18454e-08
-2.65255e-07
-6.31672e-08
-2.57777e-07
-8.54933e-08
-2.43316e-07
-1.08261e-07
-2.19071e-07
-1.30254e-07
-1.81747e-07
-1.49514e-07
-1.28094e-07
-1.63402e-07
-5.57288e-08
-1.6879e-07
3.5579e-08
-1.62637e-07
1.4216e-07
-1.42796e-07
2.54199e-07
-1.09396e-07
3.53129e-07
-6.64512e-08
4.08876e-07
-2.39083e-08
3.77226e-07
1.98317e-07
2.2944e-08
1.4851e-07
6.39504e-08
2.81828e-07
1.05681e-07
3.04643e-07
1.38678e-07
2.61661e-07
1.5898e-07
1.85839e-07
1.6633e-07
9.95805e-08
1.62522e-07
1.67121e-08
1.50233e-07
-5.53894e-08
1.32226e-07
-1.13846e-07
1.10875e-07
-1.58638e-07
8.79491e-08
-1.91324e-07
6.45741e-08
-2.1412e-07
4.13131e-08
-2.29264e-07
1.82732e-08
-2.38632e-07
-4.73683e-09
-2.4351e-07
-2.80469e-08
-2.44477e-07
-5.19628e-08
-2.4134e-07
-7.661e-08
-2.33135e-07
-1.01763e-07
-2.18172e-07
-1.26678e-07
-1.94155e-07
-1.49994e-07
-1.58434e-07
-1.69623e-07
-1.08458e-07
-1.82854e-07
-4.24974e-08
-1.86555e-07
3.92887e-08
-1.77774e-07
1.33373e-07
-1.54562e-07
2.30993e-07
-1.17372e-07
3.15938e-07
-7.07115e-08
3.62215e-07
-2.5205e-08
3.31717e-07
1.73111e-07
2.24254e-08
1.26083e-07
6.29817e-08
2.4125e-07
1.04803e-07
2.62828e-07
1.38454e-07
2.27987e-07
1.59896e-07
1.6438e-07
1.68614e-07
9.08611e-08
1.66118e-07
1.92064e-08
1.54846e-07
-4.41192e-08
1.37383e-07
-9.63838e-08
1.16009e-07
-1.37261e-07
9.24734e-08
-1.67787e-07
6.79567e-08
-1.89601e-07
4.312e-08
-2.04418e-07
1.82013e-08
-2.13702e-07
-6.84088e-09
-2.18461e-07
-3.21715e-08
-2.19144e-07
-5.79309e-08
-2.15579e-07
-8.40902e-08
-2.06981e-07
-1.10285e-07
-1.9199e-07
-1.35665e-07
-1.68777e-07
-1.5881e-07
-1.35293e-07
-1.77647e-07
-8.96165e-08
-1.89554e-07
-3.05926e-08
-1.91576e-07
4.13159e-08
-1.81003e-07
1.22794e-07
-1.56168e-07
2.06162e-07
-1.17772e-07
2.77541e-07
-7.04919e-08
3.14923e-07
-2.49352e-08
2.86164e-07
1.48169e-07
2.09431e-08
1.05152e-07
5.92326e-08
2.02942e-07
9.91536e-08
2.22912e-07
1.31787e-07
1.95342e-07
1.53188e-07
1.42994e-07
1.62647e-07
8.14184e-08
1.61373e-07
2.04849e-08
1.51486e-07
-3.42309e-08
1.35301e-07
-8.01931e-08
1.14903e-07
-1.16855e-07
9.19447e-08
-1.44822e-07
6.7594e-08
-1.65243e-07
4.25637e-08
-1.79376e-07
1.71941e-08
-1.8832e-07
-8.42313e-09
-1.9284e-07
-3.43022e-08
-1.93266e-07
-6.04347e-08
-1.89449e-07
-8.66573e-08
-1.80766e-07
-1.12501e-07
-1.66156e-07
-1.37071e-07
-1.44211e-07
-1.58964e-07
-1.13403e-07
-1.76219e-07
-7.23576e-08
-1.86416e-07
-2.03956e-08
-1.86893e-07
4.17993e-08
-1.75275e-07
1.11174e-07
-1.50217e-07
1.81107e-07
-1.12594e-07
2.39919e-07
-6.70019e-08
2.6932e-07
-2.35405e-08
2.42715e-07
1.24623e-07
1.88531e-08
8.62845e-08
5.37246e-08
1.68073e-07
9.0436e-08
1.8618e-07
1.20906e-07
1.64881e-07
1.4139e-07
1.22529e-07
1.51063e-07
7.17521e-08
1.50844e-07
2.06997e-08
1.42503e-07
-2.58902e-08
1.28027e-07
-6.57139e-08
1.09258e-07
-9.80809e-08
8.7699e-08
-1.23261e-07
6.44599e-08
-1.42e-07
4.02672e-08
-1.55176e-07
1.55332e-08
-1.6358e-07
-9.53965e-09
-1.67767e-07
-3.48369e-08
-1.6797e-07
-6.02261e-08
-1.64061e-07
-8.54371e-08
-1.55561e-07
-1.0993e-07
-1.41664e-07
-1.32814e-07
-1.2133e-07
-1.52753e-07
-9.3463e-08
-1.67969e-07
-5.71422e-08
-1.76303e-07
-1.20613e-08
-1.7545e-07
4.09528e-08
-1.63415e-07
9.91376e-08
-1.39175e-07
1.56867e-07
-1.03714e-07
2.04463e-07
-6.137e-08
2.2698e-07
-2.14254e-08
2.02782e-07
1.03203e-07
1.64848e-08
6.97791e-08
4.73063e-08
1.37248e-07
8.00952e-08
1.53378e-07
1.07695e-07
1.37299e-07
1.26673e-07
1.03552e-07
1.36153e-07
6.22605e-08
1.36784e-07
2.00556e-08
1.29986e-07
-1.90939e-08
1.17409e-07
-5.3134e-08
1.00629e-07
-8.12976e-08
8.09723e-08
-1.03605e-07
5.94637e-08
-1.20488e-07
3.68137e-08
-1.3252e-07
1.34777e-08
-1.4024e-07
-1.02561e-08
-1.44034e-07
-3.41714e-08
-1.44054e-07
-5.80398e-08
-1.40194e-07
-8.15123e-08
-1.32094e-07
-1.04011e-07
-1.19166e-07
-1.24681e-07
-1.00667e-07
-1.4229e-07
-7.58553e-08
-1.55275e-07
-4.41668e-08
-1.61769e-07
-5.57164e-09
-1.59845e-07
3.90272e-08
-1.47886e-07
8.71719e-08
-1.25172e-07
1.34143e-07
-9.27371e-08
1.72035e-07
-5.45648e-08
1.8881e-07
-1.89251e-08
1.67145e-07
8.42783e-08
1.40747e-08
5.57144e-08
4.06508e-08
1.10663e-07
6.92444e-08
1.24808e-07
9.36318e-08
1.12929e-07
1.10768e-07
8.64095e-08
1.19764e-07
5.32527e-08
1.21033e-07
1.87827e-08
1.15665e-07
-1.37205e-08
1.04993e-07
-4.24553e-08
9.03311e-08
-6.6633e-08
7.28222e-08
-8.61011e-08
5.33879e-08
-1.01053e-07
3.27035e-08
-1.11833e-07
1.12426e-08
-1.18781e-07
-1.06467e-08
-1.2215e-07
-3.26734e-08
-1.22028e-07
-5.45405e-08
-1.1833e-07
-7.58463e-08
-1.10797e-07
-9.60036e-08
-9.90079e-08
-1.14215e-07
-8.24648e-08
-1.2937e-07
-6.06972e-08
-1.40132e-07
-3.34135e-08
-1.44931e-07
-7.74382e-10
-1.42201e-07
3.6297e-08
-1.30681e-07
7.56487e-08
-1.09915e-07
1.1337e-07
-8.09467e-08
1.43083e-07
-4.73533e-08
1.55214e-07
-1.63095e-08
1.36112e-07
6.7964e-08
1.17646e-08
4.39586e-08
3.42364e-08
8.81929e-08
5.86715e-08
1.00393e-07
7.97911e-08
9.18067e-08
9.49535e-08
7.12386e-08
1.03279e-07
4.49237e-08
1.0498e-07
1.70837e-08
1.00866e-07
-9.59967e-09
9.19833e-08
-3.35708e-08
7.94013e-08
-5.40597e-08
6.40903e-08
-7.08043e-08
4.68595e-08
-8.38327e-08
2.8336e-08
-9.33146e-08
8.99356e-09
-9.94476e-08
-1.07838e-08
-1.02379e-07
-3.06569e-08
-1.02153e-07
-5.02847e-08
-9.87045e-08
-6.92348e-08
-9.18502e-08
-8.69344e-08
-8.13041e-08
-1.02654e-07
-6.6752e-08
-1.15416e-07
-4.79264e-08
-1.241e-07
-2.47347e-08
-1.27418e-07
2.54419e-09
-1.24135e-07
3.30126e-08
-1.13297e-07
6.4815e-08
-9.46754e-08
9.47456e-08
-6.9291e-08
1.17715e-07
-4.02883e-08
1.26204e-07
-1.37787e-08
1.09611e-07
5.41866e-08
9.66149e-09
3.42811e-08
2.83605e-08
6.95003e-08
4.8898e-08
7.98424e-08
6.69021e-08
7.37839e-08
8.0103e-08
5.8033e-08
8.76498e-08
3.73781e-08
8.9603e-08
1.5132e-08
8.65385e-08
-6.5336e-09
7.92549e-08
-2.62956e-08
6.86085e-08
-4.34328e-08
5.54085e-08
-5.76235e-08
4.03553e-08
-6.87896e-08
2.40179e-08
-7.69813e-08
6.85635e-09
-8.22927e-08
-1.07291e-08
-8.47963e-08
-2.83741e-08
-8.45056e-08
-4.57125e-08
-8.13687e-08
-6.22993e-08
-7.52641e-08
-7.75933e-08
-6.60061e-08
-9.0939e-08
-5.34161e-08
-1.01489e-07
-3.73697e-08
-1.08322e-07
-1.79108e-08
-1.10404e-07
4.61969e-09
-1.06785e-07
2.9384e-08
-9.6775e-08
5.48067e-08
-8.03229e-08
7.82848e-08
-5.84083e-08
9.58005e-08
-3.37364e-08
1.01526e-07
-1.14529e-08
8.73176e-08
4.27292e-08
7.83665e-09
2.64342e-08
2.31844e-08
5.41515e-08
4.02333e-08
6.27749e-08
5.54004e-08
5.86141e-08
6.67449e-08
4.66976e-08
7.34697e-08
3.066e-08
7.55276e-08
1.30776e-08
7.33072e-08
-4.31013e-09
6.74025e-08
-2.03969e-08
5.84867e-08
-3.45313e-08
4.72238e-08
-4.63739e-08
3.42126e-08
-5.57831e-08
1.99623e-08
-6.27315e-08
4.91091e-09
-6.72435e-08
-1.05403e-08
-6.93417e-08
-2.60201e-08
-6.90188e-08
-4.1154e-08
-6.62352e-08
-5.54978e-08
-6.09126e-08
-6.85515e-08
-5.29404e-08
-7.9734e-08
-4.22349e-08
-8.83226e-08
-2.87671e-08
-9.35692e-08
-1.26656e-08
-9.46584e-08
5.71015e-09
-9.08813e-08
2.56044e-08
-8.17634e-08
4.56996e-08
-6.73889e-08
6.39035e-08
-4.86711e-08
7.70819e-08
-2.79197e-08
8.07764e-08
-9.40244e-09
6.88002e-08
3.3325e-08
6.30127e-09
2.01431e-08
1.8775e-08
4.16708e-08
3.28125e-08
4.87458e-08
4.54801e-08
4.59708e-08
5.51323e-08
3.70636e-08
6.10459e-08
2.47566e-08
6.31003e-08
1.10317e-08
6.15367e-08
-2.73748e-09
5.67839e-08
-1.56442e-08
4.9363e-08
-2.71177e-08
3.9815e-08
-3.68295e-08
2.86468e-08
-4.46096e-08
1.6308e-08
-5.03874e-08
3.20889e-09
-5.4144e-08
-1.02589e-08
-5.58702e-08
-2.37297e-08
-5.55459e-08
-3.68321e-08
-5.31401e-08
-4.9134e-08
-4.86051e-08
-6.01812e-08
-4.18843e-08
-6.94628e-08
-3.2956e-08
-7.63708e-08
-2.18491e-08
-8.03009e-08
-8.73604e-09
-8.0623e-08
6.03584e-09
-7.68247e-08
2.18049e-08
-6.86031e-08
3.74875e-08
-5.61346e-08
5.14234e-08
-4.0251e-08
6.12048e-08
-2.29286e-08
6.34446e-08
-7.66049e-09
5.35304e-08
2.56695e-08
5.03456e-09
1.51137e-08
1.51312e-08
3.15741e-08
2.66362e-08
3.72679e-08
3.71589e-08
3.54762e-08
4.53198e-08
2.89118e-08
5.04748e-08
1.9606e-08
5.24533e-08
9.05884e-09
5.13839e-08
-1.66232e-09
4.75694e-08
-1.18287e-08
4.14066e-08
-2.09602e-08
3.33332e-08
-2.8758e-08
2.37755e-08
-3.50488e-08
1.31282e-08
-3.97428e-08
1.77201e-09
-4.27973e-08
-9.91707e-09
-4.4185e-08
-2.15875e-08
-4.38812e-08
-3.28801e-08
-4.18616e-08
-4.33834e-08
-3.80985e-08
-5.26889e-08
-3.25728e-08
-6.03488e-08
-2.52991e-08
-6.58577e-08
-1.63348e-08
-6.87273e-08
-5.86514e-09
-6.84806e-08
5.7947e-09
-6.47611e-08
1.8083e-08
-5.7396e-08
3.01265e-08
-4.66169e-08
4.06316e-08
-3.31829e-08
4.77777e-08
-1.87625e-08
4.90193e-08
-6.21721e-09
4.09762e-08
1.94508e-08
4.01932e-09
1.10832e-08
1.21986e-08
2.34095e-08
2.1616e-08
2.78713e-08
3.03411e-08
2.67592e-08
3.72258e-08
2.20151e-08
4.16979e-08
1.51238e-08
4.35579e-08
7.19802e-09
4.28513e-08
-9.53926e-10
3.97836e-08
-8.76205e-09
3.46562e-08
-1.58378e-08
2.7822e-08
-2.1925e-08
1.96389e-08
-2.68648e-08
1.04524e-08
-3.05649e-08
6.1345e-10
-3.29727e-08
-9.52196e-09
-3.40541e-08
-1.96211e-08
-3.37859e-08
-2.93435e-08
-3.21502e-08
-3.83047e-08
-2.91308e-08
-4.61373e-08
-2.47313e-08
-5.2448e-08
-1.89832e-08
-5.68214e-08
-1.19523e-08
-5.8861e-08
-3.81403e-09
-5.82141e-08
5.1595e-09
-5.46431e-08
1.45102e-08
-4.80672e-08
2.35565e-08
-3.87471e-08
3.13122e-08
-2.7389e-08
3.64155e-08
-1.53754e-08
3.70142e-08
-5.05349e-09
3.06624e-08
1.44007e-08
3.23375e-09
7.8443e-09
9.87964e-09
1.67826e-08
1.76027e-08
2.01507e-08
2.48496e-08
1.94984e-08
3.0667e-08
1.61752e-08
3.45441e-08
1.12362e-08
3.6264e-08
5.47909e-09
3.58162e-08
-5.03212e-10
3.33343e-08
-6.2826e-09
2.90474e-08
-1.15581e-08
2.3241e-08
-1.61236e-08
1.62165e-08
-1.98454e-08
8.27666e-09
-2.26407e-08
-2.57434e-10
-2.44582e-08
-9.05457e-09
-2.52663e-08
-1.78034e-08
-2.5047e-08
-2.61848e-08
-2.37868e-08
-3.38452e-08
-2.14746e-08
-4.04536e-08
-1.81241e-08
-4.5662e-08
-1.37712e-08
-4.91335e-08
-8.47861e-09
-5.05449e-08
-2.39653e-09
-4.96389e-08
4.25355e-09
-4.62642e-08
1.11189e-08
-4.04037e-08
1.7694e-08
-3.23332e-08
2.32453e-08
-2.26961e-08
2.67706e-08
-1.26593e-08
2.69699e-08
-4.13586e-09
2.21356e-08
1.02714e-08
2.62867e-09
5.23047e-09
8.04181e-09
1.1371e-08
1.43968e-08
1.37828e-08
2.04382e-08
1.344e-08
2.53688e-08
1.12346e-08
2.87283e-08
7.88061e-09
3.02966e-08
3.92435e-09
3.00278e-08
-2.23525e-10
2.80049e-08
-4.25846e-09
2.44043e-08
-7.95974e-09
1.94591e-08
-1.11739e-08
1.34238e-08
-1.38016e-08
6.56262e-09
-1.57797e-08
-8.35897e-10
-1.7066e-08
-8.4685e-09
-1.76343e-08
-1.60462e-08
-1.7473e-08
-2.32723e-08
-1.65701e-08
-2.98268e-08
-1.49156e-08
-3.54132e-08
-1.25283e-08
-3.97254e-08
-9.44278e-09
-4.24936e-08
-5.70963e-09
-4.34505e-08
-1.4378e-09
-4.24022e-08
3.21044e-09
-3.92577e-08
7.97365e-09
-3.4055e-08
1.24956e-08
-2.70794e-08
1.62608e-08
-1.88829e-08
1.85847e-08
-1.04659e-08
1.85665e-08
-3.39856e-09
1.50738e-08
6.87475e-09
2.1274e-09
3.11785e-09
6.52167e-09
6.95917e-09
1.17458e-08
8.5541e-09
1.6775e-08
8.41191e-09
2.09405e-08
7.08218e-09
2.38297e-08
5.009e-09
2.52301e-08
2.53709e-09
2.50799e-08
-7.19589e-11
2.34323e-08
-2.61871e-09
2.04237e-08
-4.95702e-09
1.62426e-08
-6.98876e-09
1.11021e-08
-8.65401e-09
5.22952e-09
-9.91325e-09
-1.12102e-09
-1.07338e-08
-7.67676e-09
-1.10922e-08
-1.41718e-08
-1.09835e-08
-2.03389e-08
-1.04058e-08
-2.59037e-08
-9.35288e-09
-3.06059e-08
-7.83651e-09
-3.41703e-08
-5.87382e-09
-3.63765e-08
-3.504e-09
-3.70103e-08
-8.07496e-10
-3.59325e-08
2.11994e-09
-3.30816e-08
5.11482e-09
-2.85261e-08
7.94071e-09
-2.25423e-08
1.02643e-08
-1.56236e-08
1.16632e-08
-8.61098e-09
1.15589e-08
-2.7817e-09
9.25357e-09
4.09447e-09
1.64592e-09
1.46519e-09
5.1164e-09
3.4825e-09
9.30338e-09
4.3859e-09
1.33847e-08
4.35403e-09
1.6802e-08
3.68397e-09
1.92002e-08
2.61688e-09
2.03927e-08
1.34092e-09
2.03225e-08
-3.75475e-12
1.9024e-08
-1.31472e-09
1.65957e-08
-2.51978e-09
1.3182e-08
-3.56997e-09
8.95872e-09
-4.43167e-09
4.12318e-09
-5.07992e-09
-1.10832e-09
-5.49858e-09
-6.51373e-09
-5.68261e-09
-1.18711e-08
-5.63264e-09
-1.69464e-08
-5.33799e-09
-2.15033e-08
-4.78879e-09
-2.53249e-08
-4.00653e-09
-2.81906e-08
-3.00163e-09
-2.99249e-08
-1.77847e-09
-3.03396e-08
-3.85964e-10
-2.9341e-08
1.11845e-09
-2.68959e-08
2.6635e-09
-2.30777e-08
4.11953e-09
-1.81191e-08
5.31728e-09
-1.24661e-08
6.01603e-09
-6.8118e-09
5.9135e-09
-2.17974e-09
4.62944e-09
1.92141e-09
1.08912e-09
3.6471e-10
3.54418e-09
1.0545e-09
6.56756e-09
1.3747e-09
9.54862e-09
1.36997e-09
1.20641e-08
1.15724e-09
1.38464e-08
8.24217e-10
1.47534e-08
4.29038e-10
1.4736e-08
8.50211e-12
1.38133e-08
-4.0554e-10
1.20584e-08
-7.81257e-10
9.58399e-09
-1.09859e-09
6.52055e-09
-1.35711e-09
3.00347e-09
-1.55972e-09
-8.14376e-10
-1.69429e-09
-4.76143e-09
-1.74745e-09
-8.66206e-09
-1.72759e-09
-1.23512e-08
-1.64362e-09
-1.56716e-08
-1.47908e-09
-1.84474e-08
-1.23333e-09
-2.05059e-08
-9.25943e-10
-2.17464e-08
-5.55132e-10
-2.2016e-08
-1.22024e-10
-2.124e-08
3.44928e-10
-1.94097e-08
8.24846e-10
-1.65776e-08
1.27694e-09
-1.29237e-08
1.6625e-09
-8.78718e-09
1.88066e-09
-4.70481e-09
1.8385e-09
-1.44554e-09
1.38678e-09
4.82991e-10
3.75576e-10
1.42912e-09
2.80052e-09
4.17426e-09
5.33838e-09
6.16053e-09
6.57652e-09
6.57474e-09
6.1741e-09
5.4056e-09
4.3102e-09
2.94705e-09
1.38814e-09
-2.96419e-10
-2.04449e-09
-3.77991e-09
-5.41346e-09
-6.88287e-09
-8.12431e-09
-9.04237e-09
-9.59619e-09
-9.72066e-09
-9.37498e-09
-8.55248e-09
-7.2599e-09
-5.59916e-09
-3.70975e-09
-1.87067e-09
-4.7603e-10
)
;

boundaryField
{
    floor
    {
        type            calculated;
        value           uniform 0;
    }
    ceiling
    {
        type            calculated;
        value           uniform 0;
    }
    fixedWalls
    {
        type            calculated;
        value           uniform 0;
    }
    frontAndBack
    {
        type            empty;
    }
}


// ************************************************************************* //
