/*--------------------------------*- C++ -*----------------------------------*\
| =========                 |                                                 |
| \\      /  F ield         | OpenFOAM: The Open Source CFD Toolbox           |
|  \\    /   O peration     | Version:  2412                                  |
|   \\  /    A nd           | Website:  www.openfoam.com                      |
|    \\/     M anipulation  |                                                 |
\*---------------------------------------------------------------------------*/
FoamFile
{
    version     2.0;
    format      ascii;
    arch        "LSB;label=32;scalar=64";
    class       volVectorField;
    location    "100";
    object      U;
}
// * * * * * * * * * * * * * * * * * * * * * * * * * * * * * * * * * * * * * //

dimensions      [0 1 -1 0 0 0 0];

internalField   nonuniform List<vector> 
900
(
(-1.62541e-05 1.39866e-05 0)
(-0.000110761 2.2704e-05 0)
(-0.000229754 2.16439e-05 0)
(-0.000331096 1.51488e-05 0)
(-0.000397206 7.32915e-06 0)
(-0.000425901 3.5775e-07 0)
(-0.000422205 -5.01557e-06 0)
(-0.000394151 -8.54365e-06 0)
(-0.00034981 -1.05284e-05 0)
(-0.000296153 -1.13766e-05 0)
(-0.00023827 -1.14924e-05 0)
(-0.000179409 -1.1228e-05 0)
(-0.000121235 -1.08472e-05 0)
(-6.41985e-05 -1.05311e-05 0)
(-7.93435e-06 -1.03997e-05 0)
(4.83838e-05 -1.05017e-05 0)
(0.000105722 -1.08258e-05 0)
(0.000164829 -1.13104e-05 0)
(0.000225878 -1.18261e-05 0)
(0.000288099 -1.21613e-05 0)
(0.000349361 -1.20189e-05 0)
(0.000405773 -1.10137e-05 0)
(0.000451452 -8.70203e-06 0)
(0.000478605 -4.66785e-06 0)
(0.000478256 1.32364e-06 0)
(0.000441883 9.09097e-06 0)
(0.000364652 1.75534e-05 0)
(0.000249849 2.42836e-05 0)
(0.000117809 2.46867e-05 0)
(1.62053e-05 1.40653e-05 0)
(-3.18547e-05 0.000112354 0)
(-0.000231659 0.000202661 0)
(-0.000472654 0.00020327 0)
(-0.000681683 0.000153876 0)
(-0.000823385 8.69356e-05 0)
(-0.000891123 2.20808e-05 0)
(-0.000892301 -3.11901e-05 0)
(-0.000841198 -6.96367e-05 0)
(-0.000753526 -9.41161e-05 0)
(-0.000643265 -0.000107369 0)
(-0.000521173 -0.000112742 0)
(-0.000394481 -0.000113403 0)
(-0.000267248 -0.000111971 0)
(-0.000141035 -0.000110358 0)
(-1.5642e-05 -0.000109789 0)
(0.000110138 -0.000110811 0)
(0.000237782 -0.000113332 0)
(0.000368298 -0.000116619 0)
(0.00050145 -0.000119248 0)
(0.000634978 -0.000119045 0)
(0.000763784 -0.000113102 0)
(0.000879268 -9.79436e-05 0)
(0.000969034 -6.99972e-05 0)
(0.00101736 -2.65093e-05 0)
(0.001007 3.29985e-05 0)
(0.000922693 0.00010461 0)
(0.000757453 0.000176988 0)
(0.000520232 0.000228147 0)
(0.000251554 0.000222685 0)
(3.35369e-05 0.000119255 0)
(-3.56827e-05 0.000259049 0)
(-0.00027061 0.000459739 0)
(-0.000553402 0.000461926 0)
(-0.000802677 0.000356342 0)
(-0.000976512 0.000209805 0)
(-0.00106535 6.43019e-05 0)
(-0.00107554 -5.79356e-05 0)
(-0.00102204 -0.000148836 0)
(-0.000922385 -0.000209011 0)
(-0.000792695 -0.000243708 0)
(-0.000645821 -0.000259947 0)
(-0.000490778 -0.000264667 0)
(-0.000332976 -0.000263754 0)
(-0.000174878 -0.000261608 0)
(-1.68499e-05 -0.00026106 0)
(0.000141946 -0.000263404 0)
(0.000302662 -0.00026842 0)
(0.000465877 -0.000274367 0)
(0.000630657 -0.000277905 0)
(0.000793648 -0.000274039 0)
(0.000948179 -0.000256223 0)
(0.00108358 -0.000216869 0)
(0.00118504 -0.000148518 0)
(0.00123436 -4.59474e-05 0)
(0.0012123 9.06184e-05 0)
(0.00110275 0.000251078 0)
(0.000899795 0.000409762 0)
(0.000615737 0.000519646 0)
(0.000298261 0.000507984 0)
(3.85503e-05 0.000279211 0)
(-3.21946e-05 0.000408472 0)
(-0.000253404 0.000725892 0)
(-0.000523895 0.000733724 0)
(-0.000766738 0.000573909 0)
(-0.000940874 0.000347331 0)
(-0.00103521 0.000118665 0)
(-0.00105386 -7.66535e-05 0)
(-0.00100964 -0.000224753 0)
(-0.000918183 -0.000325367 0)
(-0.000794488 -0.000385797 0)
(-0.000650948 -0.000416484 0)
(-0.000496595 -0.000428054 0)
(-0.000337192 -0.000429672 0)
(-0.000175768 -0.000428291 0)
(-1.33687e-05 -0.000428427 0)
(0.000150117 -0.000432148 0)
(0.000315098 -0.000439098 0)
(0.000481413 -0.000446468 0)
(0.000647434 -0.000448906 0)
(0.000809229 -0.000438489 0)
(0.000959768 -0.000404993 0)
(0.00108839 -0.000336808 0)
(0.00118078 -0.000222854 0)
(0.00121996 -5.59208e-05 0)
(0.00118849 0.000162335 0)
(0.0010726 0.000414787 0)
(0.000868591 0.000660819 0)
(0.000589978 0.000828086 0)
(0.000283396 0.000806427 0)
(3.54838e-05 0.000444786 0)
(-2.49674e-05 0.000536621 0)
(-0.00020387 0.000958879 0)
(-0.000427711 0.000976159 0)
(-0.000633302 0.000772635 0)
(-0.000785481 0.000478168 0)
(-0.00087317 0.000177053 0)
(-0.000897841 -8.38682e-05 0)
(-0.000868505 -0.000284953 0)
(-0.000796989 -0.00042456 0)
(-0.000695189 -0.000511282 0)
(-0.000573332 -0.000558134 0)
(-0.000439238 -0.000578681 0)
(-0.000298264 -0.000584816 0)
(-0.000153637 -0.00058566 0)
(-6.99992e-06 -0.00058718 0)
(0.000140933 -0.000592109 0)
(0.000289679 -0.000599959 0)
(0.000438271 -0.000606979 0)
(0.000584552 -0.00060606 0)
(0.000724504 -0.000586772 0)
(0.000851668 -0.000535826 0)
(0.000956811 -0.000438372 0)
(0.00102807 -0.000280591 0)
(0.00105187 -5.40714e-05 0)
(0.0010148 0.000237689 0)
(0.000907068 0.000570943 0)
(0.000727534 0.000891769 0)
(0.000489223 0.00110589 0)
(0.00023209 0.00107097 0)
(2.8122e-05 0.00058914 0)
(-1.63079e-05 0.000631741 0)
(-0.000139595 0.00113645 0)
(-0.00029896 0.00116545 0)
(-0.000450056 0.00093254 0)
(-0.000566737 0.000588657 0)
(-0.000639306 0.000232633 0)
(-0.000666799 -7.97208e-05 0)
(-0.000653773 -0.000324022 0)
(-0.000607469 -0.000497031 0)
(-0.000535718 -0.000607754 0)
(-0.000445679 -0.000670709 0)
(-0.000343232 -0.00070138 0)
(-0.000232808 -0.000713528 0)
(-0.000117499 -0.000717818 0)
(6.30295e-07 -0.000721272 0)
(0.000120129 -0.000727108 0)
(0.000239687 -0.000734727 0)
(0.000357648 -0.000739654 0)
(0.000471545 -0.000733476 0)
(0.000577679 -0.00070395 0)
(0.000670769 -0.000635658 0)
(0.000743863 -0.000511611 0)
(0.000788593 -0.000316357 0)
(0.00079588 -4.11362e-05 0)
(0.000757359 0.000308603 0)
(0.000667762 0.000703623 0)
(0.000528279 0.00107966 0)
(0.00035016 0.00132592 0)
(0.000163239 0.00127607 0)
(1.89965e-05 0.000698591 0)
(-7.70351e-06 0.0006898 0)
(-7.27592e-05 0.0012493 0)
(-0.000162476 0.00129048 0)
(-0.000252835 0.00104323 0)
(-0.000328119 0.000670717 0)
(-0.000380756 0.000280312 0)
(-0.000407856 -6.61655e-05 0)
(-0.000409856 -0.000340977 0)
(-0.000389335 -0.00053929 0)
(-0.000349863 -0.000669751 0)
(-0.000295271 -0.000747293 0)
(-0.000229204 -0.000788221 0)
(-0.000154875 -0.000807219 0)
(-7.49895e-05 -0.000815773 0)
(8.18861e-06 -0.000821488 0)
(9.26758e-05 -0.000827854 0)
(0.000176529 -0.000834187 0)
(0.000257611 -0.000835575 0)
(0.000333394 -0.000822838 0)
(0.000400779 -0.000782737 0)
(0.000455996 -0.000698761 0)
(0.000494728 -0.000552945 0)
(0.000512412 -0.000329329 0)
(0.000504728 -1.95718e-05 0)
(0.000468431 0.000369045 0)
(0.000402636 0.000803315 0)
(0.000310344 0.00121228 0)
(0.00020013 0.0014749 0)
(9.02656e-05 0.00141045 0)
(9.75884e-06 0.000767951 0)
(-7.35392e-08 0.000712169 0)
(-1.13869e-05 0.00129823 0)
(-3.52656e-05 0.00135048 0)
(-6.68292e-05 0.00110253 0)
(-0.000100696 0.000721195 0)
(-0.000131805 0.000316871 0)
(-0.000155894 -4.60742e-05 0)
(-0.000170052 -0.000337939 0)
(-0.000172714 -0.000552437 0)
(-0.000163551 -0.000697259 0)
(-0.00014326 -0.000786817 0)
(-0.000113282 -0.000837232 0)
(-7.55199e-05 -0.000863214 0)
(-3.21135e-05 -0.000876373 0)
(1.46977e-05 -0.000884434 0)
(6.26388e-05 -0.000890941 0)
(0.000109388 -0.000895164 0)
(0.000152581 -0.000892032 0)
(0.00018985 -0.000872141 0)
(0.000218874 -0.000822045 0)
(0.000237503 -0.000725132 0)
(0.000244027 -0.000563549 0)
(0.000237472 -0.000321822 0)
(0.000217906 7.41227e-06 0)
(0.000186674 0.000415298 0)
(0.000146618 0.000866341 0)
(0.000101959 0.00128655 0)
(5.81823e-05 0.00155101 0)
(2.2149e-05 0.00147387 0)
(1.40536e-06 0.000798044 0)
(6.15887e-06 0.000703473 0)
(3.99191e-05 0.00129036 0)
(7.23138e-05 0.00135147 0)
(9.20104e-05 0.00111402 0)
(9.54703e-05 0.000740904 0)
(8.51192e-05 0.000340764 0)
(6.5833e-05 -2.26035e-05 0)
(4.30653e-05 -0.000318876 0)
(2.16601e-05 -0.000540565 0)
(5.12457e-06 -0.000694009 0)
(-4.58965e-06 -0.000792379 0)
(-6.97226e-06 -0.000850791 0)
(-2.67023e-06 -0.00088324 0)
(6.83929e-06 -0.000900868 0)
(1.95357e-05 -0.000911121 0)
(3.30973e-05 -0.000917415 0)
(4.50879e-05 -0.000919002 0)
(5.31638e-05 -0.000910905 0)
(5.52962e-05 -0.000883965 0)
(5.00065e-05 -0.000825205 0)
(3.66928e-05 -0.000718739 0)
(1.59709e-05 -0.000547731 0)
(-1.00686e-05 -0.000297981 0)
(-3.77449e-05 3.65143e-05 0)
(-6.20473e-05 0.000445707 0)
(-7.72949e-05 0.000893439 0)
(-7.86384e-05 0.00130603 0)
(-6.36815e-05 0.00156024 0)
(-3.56648e-05 0.00147336 0)
(-5.5047e-06 0.000793417 0)
(1.07548e-05 0.00067011 0)
(7.89051e-05 0.00123653 0)
(0.00015518 0.00130376 0)
(0.00021568 0.00108497 0)
(0.000249851 0.000733458 0)
(0.000257758 0.000351959 0)
(0.000244252 1.39722e-06 0)
(0.000216468 -0.000288451 0)
(0.000181522 -0.000509249 0)
(0.000145221 -0.00066579 0)
(0.000111533 -0.000769518 0)
(8.25401e-05 -0.000833971 0)
(5.86967e-05 -0.000871872 0)
(3.92141e-05 -0.000893443 0)
(2.24365e-05 -0.000905556 0)
(6.20772e-06 -0.000911351 0)
(-1.17851e-05 -0.000910091 0)
(-3.36544e-05 -0.000897091 0)
(-6.09673e-05 -0.00086381 0)
(-9.43628e-05 -0.000798244 0)
(-0.000133092 -0.000685863 0)
(-0.00017467 -0.000511509 0)
(-0.000214648 -0.000262778 0)
(-0.000246648 6.47624e-05 0)
(-0.000263077 0.00046031 0)
(-0.000256404 0.000888441 0)
(-0.000221675 0.00127852 0)
(-0.000159256 0.00151348 0)
(-8.04981e-05 0.00142023 0)
(-1.07347e-05 0.000760645 0)
(1.37484e-05 0.000618876 0)
(0.000105294 0.00114884 0)
(0.000212238 0.00121948 0)
(0.000302173 0.0010245 0)
(0.000359423 0.000703857 0)
(0.000382052 0.000351397 0)
(0.000374605 2.35569e-05 0)
(0.000345011 -0.000251377 0)
(0.000301665 -0.000464592 0)
(0.000251806 -0.000619315 0)
(0.000200756 -0.000725015 0)
(0.00015174 -0.000793312 0)
(0.000106108 -0.00083531 0)
(6.37238e-05 -0.000860018 0)
(2.33837e-05 -0.000873525 0)
(-1.67387e-05 -0.000878607 0)
(-5.86429e-05 -0.000874556 0)
(-0.000104057 -0.000857128 0)
(-0.000154019 -0.00081866 0)
(-0.000208403 -0.000748463 0)
(-0.000265393 -0.000633739 0)
(-0.000321115 -0.000461425 0)
(-0.000369513 -0.000221174 0)
(-0.000402494 8.98327e-05 0)
(-0.000410926 0.000460432 0)
(-0.000386347 0.000857041 0)
(-0.000324106 0.00121409 0)
(-0.000226826 0.00142389 0)
(-0.000111753 0.00132759 0)
(-1.42805e-05 0.0007071 0)
(1.53273e-05 0.00055641 0)
(0.000120191 0.00103919 0)
(0.000245391 0.0011107 0)
(0.000353763 0.000942163 0)
(0.000426462 0.000657687 0)
(0.000459969 0.000340776 0)
(0.000458323 4.2264e-05 0)
(0.000429481 -0.000211745 0)
(0.000382274 -0.000412301 0)
(0.000324606 -0.000561156 0)
(0.000262545 -0.000665759 0)
(0.000200044 -0.000735682 0)
(0.000139121 -0.000780251 0)
(8.02137e-05 -0.00080712 0)
(2.26022e-05 -0.000821495 0)
(-3.51055e-05 -0.000825735 0)
(-9.44763e-05 -0.000819175 0)
(-0.000156772 -0.000798092 0)
(-0.000222477 -0.000755847 0)
(-0.000290786 -0.00068326 0)
(-0.000359127 -0.000569457 0)
(-0.000422753 -0.000403603 0)
(-0.00047469 -0.000177514 0)
(-0.000506006 0.00011014 0)
(-0.000506945 0.000448195 0)
(-0.000468885 0.000805673 0)
(-0.000387761 0.00112337 0)
(-0.000267905 0.00130495 0)
(-0.000130308 0.00120861 0)
(-1.62903e-05 0.000640045 0)
(1.57175e-05 0.0004886 0)
(0.000125348 0.000918331 0)
(0.000258226 0.000988442 0)
(0.00037543 0.000846773 0)
(0.000456652 0.000600499 0)
(0.000497371 0.000322258 0)
(0.000500863 5.66766e-05 0)
(0.000474581 -0.000172736 0)
(0.000427155 -0.000357166 0)
(0.000366536 -0.000497073 0)
(0.000299022 -0.000597991 0)
(0.000228928 -0.000667482 0)
(0.000158716 -0.000713096 0)
(8.92905e-05 -0.00074111 0)
(2.04038e-05 -0.000755821 0)
(-4.88483e-05 -0.000759166 0)
(-0.000119533 -0.000750537 0)
(-0.00019242 -0.000726761 0)
(-0.000267488 -0.000682257 0)
(-0.000343385 -0.000609399 0)
(-0.000417042 -0.000499296 0)
(-0.00048329 -0.000343287 0)
(-0.000534835 -0.00013526 0)
(-0.000562615 0.000124829 0)
(-0.000556989 0.000426119 0)
(-0.000509757 0.000740697 0)
(-0.000417618 0.00101636 0)
(-0.000286081 0.00116901 0)
(-0.000137967 0.00107517 0)
(-1.69916e-05 0.00056596 0)
(1.52264e-05 0.000420073 0)
(0.000122944 0.000794815 0)
(0.000255098 0.000861791 0)
(0.000373423 0.000745696 0)
(0.000457453 0.000537172 0)
(0.000502135 0.000297968 0)
(0.000509841 6.64156e-05 0)
(0.000487205 -0.000136728 0)
(0.000442216 -0.000303002 0)
(0.000382415 -0.000431816 0)
(0.000313932 -0.000526999 0)
(0.000241153 -0.00059427 0)
(0.000166777 -0.000639511 0)
(9.20642e-05 -0.000667699 0)
(1.71929e-05 -0.000682257 0)
(-5.82616e-05 -0.000684713 0)
(-0.000134861 -0.000674527 0)
(-0.000212892 -0.000649078 0)
(-0.000291887 -0.000603813 0)
(-0.000370109 -0.000532578 0)
(-0.000444228 -0.000428376 0)
(-0.000509 -0.000284557 0)
(-0.000557277 -9.68688e-05 0)
(-0.000580402 0.000133691 0)
(-0.000569379 0.00039681 0)
(-0.000516834 0.000667828 0)
(-0.000420303 0.000901674 0)
(-0.000285991 0.0010265 0)
(-0.000136992 0.000937163 0)
(-1.66643e-05 0.000490154 0)
(1.41036e-05 0.000354399 0)
(0.000115205 0.000675242 0)
(0.00024054 0.000737819 0)
(0.000354243 0.000644951 0)
(0.000436736 0.000471904 0)
(0.000482659 0.00027004 0)
(0.000493542 7.16976e-05 0)
(0.00047504 -0.000105094 0)
(0.000434218 -0.000252398 0)
(0.000377903 -0.000368842 0)
(0.000311789 -0.000456816 0)
(0.000240107 -0.000520434 0)
(0.000165631 -0.000564098 0)
(8.98625e-05 -0.000591612 0)
(1.33456e-05 -0.000605612 0)
(-6.39062e-05 -0.00060725 0)
(-0.000141994 -0.000596048 0)
(-0.000220771 -0.000569907 0)
(-0.000299391 -0.000525222 0)
(-0.000375887 -0.000457182 0)
(-0.000446867 -0.000360481 0)
(-0.000507273 -0.000230247 0)
(-0.00055043 -6.38078e-05 0)
(-0.000568436 0.000137052 0)
(-0.00055328 0.000362749 0)
(-0.000498644 0.000591872 0)
(-0.000402896 0.000786208 0)
(-0.000272516 0.000885569 0)
(-0.000129754 0.000802238 0)
(-1.56149e-05 0.000416688 0)
(1.25691e-05 0.000293936 0)
(0.000104104 0.000564228 0)
(0.000218702 0.000621467 0)
(0.00032394 0.000548945 0)
(0.000401803 0.000407906 0)
(0.000446836 0.000240321 0)
(0.000459872 7.30601e-05 0)
(0.000445529 -7.84516e-05 0)
(0.000409805 -0.000206934 0)
(0.000358646 -0.000310474 0)
(0.00029715 -0.000390316 0)
(0.000229248 -0.000449236 0)
(0.000157664 -0.000490377 0)
(8.40367e-05 -0.000516531 0)
(9.19981e-06 -0.000529651 0)
(-6.64566e-05 -0.000530565 0)
(-0.000142642 -0.00051886 0)
(-0.000218855 -0.000492897 0)
(-0.000293958 -0.00044991 0)
(-0.000365874 -0.000386271 0)
(-0.000431303 -0.000298113 0)
(-0.000485554 -0.000182062 0)
(-0.000522624 -3.67182e-05 0)
(-0.000535561 0.000135594 0)
(-0.000517512 0.000326137 0)
(-0.000463304 0.000516598 0)
(-0.000372061 0.000675106 0)
(-0.000250217 0.000752125 0)
(-0.000118449 0.00067578 0)
(-1.41142e-05 0.000348408 0)
(1.08907e-05 0.000239999 0)
(9.13288e-05 0.000464439 0)
(0.000193063 0.000515802 0)
(0.000287636 0.000460491 0)
(0.000358866 0.00034737 0)
(0.000401485 0.000210261 0)
(0.000415753 7.11757e-05 0)
(0.000405267 -5.68854e-05 0)
(0.000374936 -0.000167377 0)
(0.000329775 -0.000258066 0)
(0.000274214 -0.000329325 0)
(0.000211799 -0.000382857 0)
(0.000145114 -0.000420786 0)
(7.58499e-05 -0.000445062 0)
(5.04789e-06 -0.00045707 0)
(-6.66e-05 -0.000457372 0)
(-0.000138496 -0.00044562 0)
(-0.000209866 -0.00042057 0)
(-0.000279368 -0.000380164 0)
(-0.000344922 -0.000321775 0)
(-0.000403416 -0.00024271 0)
(-0.000450634 -0.000140807 0)
(-0.000481345 -1.56319e-05 0)
(-0.000489624 0.000130171 0)
(-0.000469812 0.000288768 0)
(-0.000417858 0.000444711 0)
(-0.000333531 0.000571809 0)
(-0.00022301 0.00062992 0)
(-0.000104946 0.000561103 0)
(-1.23716e-05 0.000286998 0)
(9.23092e-06 0.000193248 0)
(7.81886e-05 0.000377136 0)
(0.00016634 0.000422477 0)
(0.000249297 0.000381219 0)
(0.000312835 0.000291784 0)
(0.000352079 0.000181077 0)
(0.000366804 6.68759e-05 0)
(0.00035967 -4.00132e-05 0)
(0.000334568 -0.000133809 0)
(0.000295611 -0.000212142 0)
(0.000246555 -0.00027476 0)
(0.000190526 -0.000322546 0)
(0.000129909 -0.000356826 0)
(6.63769e-05 -0.000378884 0)
(1.10418e-06 -0.000389645 0)
(-6.49957e-05 -0.000389462 0)
(-0.000131102 -0.000378046 0)
(-0.000196243 -0.000354487 0)
(-0.000258965 -0.000317298 0)
(-0.000317251 -0.000264666 0)
(-0.000368243 -0.000194827 0)
(-0.000408247 -0.000106556 0)
(-0.000432829 -1.09419e-07 0)
(-0.000437078 0.000121734 0)
(-0.000416467 0.000252064 0)
(-0.000367972 0.000378015 0)
(-0.000291885 0.000478342 0)
(-0.000194004 0.000520953 0)
(-9.07296e-05 0.000459874 0)
(-1.05693e-05 0.000233228 0)
(7.63631e-06 0.000153658 0)
(6.55731e-05 0.000302478 0)
(0.00014046 0.000341873 0)
(0.000211764 0.000311745 0)
(0.000267318 0.000241971 0)
(0.000302686 0.000153653 0)
(0.000317248 6.09586e-05 0)
(0.000312869 -2.72364e-05 0)
(0.000292535 -0.000105906 0)
(0.000259541 -0.000172685 0)
(0.000217012 -0.00022691 0)
(0.000167647 -0.000268867 0)
(0.000113596 -0.000299279 0)
(5.647e-05 -0.000318925 0)
(-2.48803e-06 -0.000328375 0)
(-6.22222e-05 -0.000327826 0)
(-0.000121767 -0.000317046 0)
(-0.000180021 -0.000295389 0)
(-0.000235489 -0.000261822 0)
(-0.000286277 -0.000215164 0)
(-0.000329808 -0.000154358 0)
(-0.000362914 -7.88769e-05 0)
(-0.000381922 1.0571e-05 0)
(-0.00038287 0.000111225 0)
(-0.000362235 0.000217084 0)
(-0.000317882 0.000317553 0)
(-0.000250525 0.000395603 0)
(-0.000165474 0.000425885 0)
(-7.68788e-05 0.000372484 0)
(-8.84962e-06 0.00018722 0)
(6.184e-06 0.00012069 0)
(5.40617e-05 0.000239774 0)
(0.00011665 0.000273424 0)
(0.000176949 0.000251916 0)
(0.000224769 0.000198176 0)
(0.000256092 0.00012851 0)
(0.000270025 5.40803e-05 0)
(0.000267787 -1.78955e-05 0)
(0.000251606 -8.31114e-05 0)
(0.000224059 -0.000139312 0)
(0.000187704 -0.000185589 0)
(0.000144837 -0.000221828 0)
(9.73594e-05 -0.000248326 0)
(4.67836e-05 -0.00026549 0)
(-5.62967e-06 -0.000273632 0)
(-5.87502e-05 -0.00027283 0)
(-0.000111532 -0.000262909 0)
(-0.0001628 -0.000243426 0)
(-0.000211073 -0.000213694 0)
(-0.000254613 -0.000173008 0)
(-0.00029114 -0.00012082 0)
(-0.000317977 -5.70975e-05 0)
(-0.000332143 1.7192e-05 0)
(-0.000330517 9.94246e-05 0)
(-0.000310438 0.00018447 0)
(-0.000270509 0.000263688 0)
(-0.000211759 0.000323572 0)
(-0.000138941 0.00034436 0)
(-6.40851e-05 0.000298341 0)
(-7.28197e-06 0.000148564 0)
(4.95718e-06 9.36617e-05 0)
(4.39827e-05 0.000187883 0)
(9.56092e-05 0.000216141 0)
(0.000145998 0.000201174 0)
(0.000186664 0.000160294 0)
(0.000214006 0.000105931 0)
(0.000226987 4.68005e-05 0)
(0.000226329 -1.12863e-05 0)
(0.000213635 -6.46987e-05 0)
(0.00019088 -0.000111366 0)
(0.000160121 -0.000150271 0)
(0.000123286 -0.000181056 0)
(8.20343e-05 -0.000203728 0)
(3.7763e-05 -0.000218442 0)
(-8.28499e-06 -0.000225326 0)
(-5.49599e-05 -0.00022438 0)
(-0.000101191 -0.000215472 0)
(-0.000145769 -0.000198311 0)
(-0.000187272 -0.000172471 0)
(-0.000224131 -0.000137585 0)
(-0.000254356 -9.34537e-05 0)
(-0.00027572 -4.03702e-05 0)
(-0.000285835 2.05884e-05 0)
(-0.000282302 8.70196e-05 0)
(-0.000263179 0.000154603 0)
(-0.000227658 0.000216359 0)
(-0.000176962 0.000261691 0)
(-0.0001153 0.000275402 0)
(-5.27681e-05 0.000236328 0)
(-5.91012e-06 0.000116557 0)
(3.94845e-06 7.1835e-05 0)
(3.54387e-05 0.000145466 0)
(7.76431e-05 0.000168818 0)
(0.000119411 0.000158695 0)
(0.000153676 0.000127964 0)
(0.000177277 8.60069e-05 0)
(0.000189132 3.95652e-05 0)
(0.00018958 -6.73941e-06 0)
(0.000179724 -4.99028e-05 0)
(0.000161046 -8.80849e-05 0)
(0.000135186 -0.000120267 0)
(0.000103746 -0.00014596 0)
(6.81612e-05 -0.000164995 0)
(2.97001e-05 -0.000177365 0)
(-1.04372e-05 -0.000183078 0)
(-5.11181e-05 -0.000182086 0)
(-9.12826e-05 -0.000174287 0)
(-0.000129727 -0.000159499 0)
(-0.000165112 -0.000137486 0)
(-0.000196038 -0.00010811 0)
(-0.000220791 -7.13955e-05 0)
(-0.000237532 -2.78201e-05 0)
(-0.00024437 2.15379e-05 0)
(-0.000239508 7.45466e-05 0)
(-0.000221585 0.000127623 0)
(-0.000190246 0.000175193 0)
(-0.000146789 0.000209057 0)
(-9.49378e-05 0.000217639 0)
(-4.31042e-05 0.000185017 0)
(-4.75967e-06 9.03694e-05 0)
(3.10937e-06 5.4353e-05 0)
(2.83933e-05 0.000111076 0)
(6.27553e-05 0.000130049 0)
(9.72046e-05 0.000123407 0)
(0.000125907 0.000100596 0)
(0.000146134 6.8628e-05 0)
(0.00015681 3.26483e-05 0)
(0.000157983 -3.72207e-06 0)
(0.000150374 -3.80455e-05 0)
(0.00013508 -6.87432e-05 0)
(0.000113391 -9.48622e-05 0)
(8.6632e-05 -0.000115873 0)
(5.6033e-05 -0.00013152 0)
(2.2741e-05 -0.0001417 0)
(-1.21012e-05 -0.000146347 0)
(-4.74019e-05 -0.000145391 0)
(-8.21385e-05 -0.000138749 0)
(-0.000115144 -0.000126314 0)
(-0.000145176 -0.000107984 0)
(-0.000170992 -8.37644e-05 0)
(-0.000191129 -5.38034e-05 0)
(-0.000204077 -1.8656e-05 0)
(-0.000208348 2.06729e-05 0)
(-0.000202635 6.23458e-05 0)
(-0.000186034 0.000103444 0)
(-0.000158504 0.000139586 0)
(-0.000121375 0.000164524 0)
(-7.79045e-05 0.000169506 0)
(-3.50678e-05 0.000142778 0)
(-3.81258e-06 6.90626e-05 0)
(2.43577e-06 4.0355e-05 0)
(2.2747e-05 8.32837e-05 0)
(5.0722e-05 9.83572e-05 0)
(7.90839e-05 9.41495e-05 0)
(0.000103078 7.74892e-05 0)
(0.000120363 5.35495e-05 0)
(0.000129888 2.6187e-05 0)
(0.000131501 -1.81856e-06 0)
(0.000125633 -2.85334e-05 0)
(0.000113083 -5.26562e-05 0)
(9.48661e-05 -7.33477e-05 0)
(7.20743e-05 -9.00997e-05 0)
(4.57589e-05 -0.000102629 0)
(1.69534e-05 -0.000110784 0)
(-1.32664e-05 -0.000114465 0)
(-4.38647e-05 -0.000113596 0)
(-7.38714e-05 -0.000108114 0)
(-0.000102181 -9.79606e-05 0)
(-0.000127655 -8.31209e-05 0)
(-0.00014918 -6.36759e-05 0)
(-0.000165519 -3.98217e-05 0)
(-0.000175434 -1.21122e-05 0)
(-0.000177762 1.85653e-05 0)
(-0.000171586 5.06795e-05 0)
(-0.000156337 8.19122e-05 0)
(-0.000132176 0.000108887 0)
(-0.000100455 0.000126914 0)
(-6.40079e-05 0.000129506 0)
(-2.85659e-05 0.000108104 0)
(-3.05957e-06 5.17664e-05 0)
(1.94072e-06 2.91288e-05 0)
(1.83293e-05 6.07982e-05 0)
(4.11536e-05 7.23982e-05 0)
(6.45424e-05 6.98498e-05 0)
(8.46371e-05 5.79754e-05 0)
(9.94202e-05 4.05081e-05 0)
(0.000107877 2.02638e-05 0)
(0.000109722 -6.84629e-07 0)
(0.000105179 -2.08536e-05 0)
(9.48234e-05 -3.92135e-05 0)
(7.94575e-05 -5.5068e-05 0)
(5.99841e-05 -6.79718e-05 0)
(3.7305e-05 -7.76539e-05 0)
(1.23482e-05 -8.39519e-05 0)
(-1.38885e-05 -8.67623e-05 0)
(-4.04375e-05 -8.60218e-05 0)
(-6.63865e-05 -8.16853e-05 0)
(-9.07055e-05 -7.37163e-05 0)
(-0.000112362 -6.21462e-05 0)
(-0.000130348 -4.70823e-05 0)
(-0.000143621 -2.87246e-05 0)
(-0.000151177 -7.57312e-06 0)
(-0.0001521 1.56263e-05 0)
(-0.000145767 3.96631e-05 0)
(-0.000131847 6.27731e-05 0)
(-0.000110641 8.24089e-05 0)
(-8.34659e-05 9.50802e-05 0)
(-5.28079e-05 9.61643e-05 0)
(-2.3397e-05 7.95649e-05 0)
(-2.4843e-06 3.7696e-05 0)
(1.58746e-06 2.01084e-05 0)
(1.48708e-05 4.25144e-05 0)
(3.35369e-05 5.10478e-05 0)
(5.28963e-05 4.96181e-05 0)
(6.97863e-05 4.14981e-05 0)
(8.24527e-05 2.9282e-05 0)
(8.99258e-05 1.49448e-05 0)
(9.18477e-05 -3.34331e-08 0)
(8.83033e-05 -1.45682e-05 0)
(7.97078e-05 -2.78827e-05 0)
(6.67024e-05 -3.94356e-05 0)
(5.0038e-05 -4.88724e-05 0)
(3.04883e-05 -5.59678e-05 0)
(8.87648e-06 -6.05797e-05 0)
(-1.38902e-05 -6.26219e-05 0)
(-3.69193e-05 -6.20494e-05 0)
(-5.93559e-05 -5.88218e-05 0)
(-8.02552e-05 -5.29068e-05 0)
(-9.86927e-05 -4.436e-05 0)
(-0.000113758 -3.32952e-05 0)
(-0.000124584 -1.98847e-05 0)
(-0.000130354 -4.51873e-06 0)
(-0.000130332 1.22222e-05 0)
(-0.000124083 2.94204e-05 0)
(-0.000111465 4.58035e-05 0)
(-9.29104e-05 5.95235e-05 0)
(-6.96204e-05 6.80894e-05 0)
(-4.37445e-05 6.82823e-05 0)
(-1.92409e-05 5.59547e-05 0)
(-2.02493e-06 2.61665e-05 0)
(1.29029e-06 1.28294e-05 0)
(1.20106e-05 2.75791e-05 0)
(2.72446e-05 3.3463e-05 0)
(4.32563e-05 3.2782e-05 0)
(5.7423e-05 2.76249e-05 0)
(6.8221e-05 1.9677e-05 0)
(7.47435e-05 1.0239e-05 0)
(7.66117e-05 2.96435e-07 0)
(7.38371e-05 -9.404e-06 0)
(6.67266e-05 -1.83133e-05 0)
(5.57894e-05 -2.60551e-05 0)
(4.16433e-05 -3.23944e-05 0)
(2.49459e-05 -3.71798e-05 0)
(6.4152e-06 -4.02961e-05 0)
(-1.31424e-05 -4.1664e-05 0)
(-3.29128e-05 -4.1258e-05 0)
(-5.2108e-05 -3.9062e-05 0)
(-6.99023e-05 -3.5053e-05 0)
(-8.55036e-05 -2.92751e-05 0)
(-9.80871e-05 -2.18082e-05 0)
(-0.000106909 -1.27943e-05 0)
(-0.00011131 -2.51366e-06 0)
(-0.000110724 8.65383e-06 0)
(-0.000104844 2.00712e-05 0)
(-9.36244e-05 3.08634e-05 0)
(-7.75483e-05 3.97796e-05 0)
(-5.77327e-05 4.52058e-05 0)
(-3.60478e-05 4.49722e-05 0)
(-1.57516e-05 3.64256e-05 0)
(-1.65295e-06 1.66952e-05 0)
(9.77409e-07 6.99121e-06 0)
(9.32979e-06 1.55138e-05 0)
(2.14567e-05 1.91506e-05 0)
(3.43727e-05 1.89352e-05 0)
(4.59388e-05 1.60714e-05 0)
(5.48505e-05 1.15434e-05 0)
(6.03165e-05 6.12531e-06 0)
(6.20009e-05 4.04676e-07 0)
(5.98933e-05 -5.17791e-06 0)
(5.42092e-05 -1.03081e-05 0)
(4.53253e-05 -1.47754e-05 0)
(3.37329e-05 -1.84413e-05 0)
(1.99942e-05 -2.12074e-05 0)
(4.73199e-06 -2.30026e-05 0)
(-1.13864e-05 -2.37889e-05 0)
(-2.76967e-05 -2.35587e-05 0)
(-4.35172e-05 -2.229e-05 0)
(-5.81291e-05 -1.99632e-05 0)
(-7.08632e-05 -1.66325e-05 0)
(-8.10378e-05 -1.23294e-05 0)
(-8.80734e-05 -7.1174e-06 0)
(-9.14105e-05 -1.19665e-06 0)
(-9.05841e-05 5.21589e-06 0)
(-8.54164e-05 1.17853e-05 0)
(-7.59214e-05 1.79738e-05 0)
(-6.25195e-05 2.3047e-05 0)
(-4.62059e-05 2.60512e-05 0)
(-2.86073e-05 2.57106e-05 0)
(-1.23598e-05 2.0487e-05 0)
(-1.28797e-06 9.04894e-06 0)
(5.9422e-07 2.67547e-06 0)
(6.30402e-06 6.42786e-06 0)
(1.50076e-05 8.13799e-06 0)
(2.43933e-05 8.1084e-06 0)
(3.28777e-05 6.91809e-06 0)
(3.9466e-05 5.02813e-06 0)
(4.35619e-05 2.7785e-06 0)
(4.49011e-05 4.07256e-07 0)
(4.34541e-05 -1.90721e-06 0)
(3.93693e-05 -4.02478e-06 0)
(3.29365e-05 -5.85266e-06 0)
(2.45328e-05 -7.34871e-06 0)
(1.45575e-05 -8.48607e-06 0)
(3.43896e-06 -9.22499e-06 0)
(-8.33171e-06 -9.54034e-06 0)
(-2.02268e-05 -9.44961e-06 0)
(-3.17279e-05 -8.9499e-06 0)
(-4.23583e-05 -7.99597e-06 0)
(-5.16333e-05 -6.62055e-06 0)
(-5.89817e-05 -4.87248e-06 0)
(-6.40223e-05 -2.74446e-06 0)
(-6.63773e-05 -2.97945e-07 0)
(-6.56482e-05 2.34283e-06 0)
(-6.1732e-05 5.06287e-06 0)
(-5.4663e-05 7.6316e-06 0)
(-4.47545e-05 9.77608e-06 0)
(-3.27662e-05 1.10099e-05 0)
(-1.99597e-05 1.07923e-05 0)
(-8.3365e-06 8.38263e-06 0)
(-7.96671e-07 3.4174e-06 0)
(1.30413e-07 2.86244e-07 0)
(2.36567e-06 8.15959e-07 0)
(6.24606e-06 1.02904e-06 0)
(1.05442e-05 1.00657e-06 0)
(1.44648e-05 8.60345e-07 0)
(1.75094e-05 6.59896e-07 0)
(1.93902e-05 4.33267e-07 0)
(2.00071e-05 1.85262e-07 0)
(1.93854e-05 -6.60242e-08 0)
(1.7607e-05 -2.83375e-07 0)
(1.47769e-05 -4.46554e-07 0)
(1.10439e-05 -5.758e-07 0)
(6.61208e-06 -6.92895e-07 0)
(1.70278e-06 -7.76587e-07 0)
(-3.49217e-06 -7.98035e-07 0)
(-8.7755e-06 -7.80449e-07 0)
(-1.38802e-05 -7.49066e-07 0)
(-1.85738e-05 -6.6538e-07 0)
(-2.26991e-05 -5.2234e-07 0)
(-2.59833e-05 -3.59437e-07 0)
(-2.82256e-05 -1.62869e-07 0)
(-2.92843e-05 8.42803e-08 0)
(-2.89671e-05 3.49152e-07 0)
(-2.72177e-05 6.25507e-07 0)
(-2.4011e-05 8.90035e-07 0)
(-1.95013e-05 1.14441e-06 0)
(-1.40384e-05 1.29372e-06 0)
(-8.21524e-06 1.28729e-06 0)
(-3.04922e-06 9.91302e-07 0)
(-1.37062e-07 3.39979e-07 0)
)
;

boundaryField
{
    floor
    {
        type            noSlip;
    }
    ceiling
    {
        type            noSlip;
    }
    fixedWalls
    {
        type            noSlip;
    }
    frontAndBack
    {
        type            empty;
    }
}


// ************************************************************************* //
