/*--------------------------------*- C++ -*----------------------------------*\
| =========                 |                                                 |
| \\      /  F ield         | OpenFOAM: The Open Source CFD Toolbox           |
|  \\    /   O peration     | Version:  2412                                  |
|   \\  /    A nd           | Website:  www.openfoam.com                      |
|    \\/     M anipulation  |                                                 |
\*---------------------------------------------------------------------------*/
FoamFile
{
    version     2.0;
    format      ascii;
    arch        "LSB;label=32;scalar=64";
    class       volScalarField;
    location    "1000";
    object      p;
}
// * * * * * * * * * * * * * * * * * * * * * * * * * * * * * * * * * * * * * //

dimensions      [0 2 -2 0 0 0 0];

internalField   nonuniform List<scalar> 
40000
(
0
-1.35147e-06
-2.87578e-06
-4.03041e-06
-4.47971e-06
-4.07445e-06
-2.77631e-06
-6.11695e-07
2.35812e-06
6.04628e-06
1.03625e-05
1.52071e-05
2.04891e-05
2.61174e-05
3.20091e-05
3.80877e-05
4.42861e-05
5.05425e-05
5.6804e-05
6.30241e-05
6.91637e-05
7.5189e-05
8.10739e-05
8.67955e-05
9.23365e-05
9.76841e-05
0.000102829
0.000107764
0.000112487
0.000116997
0.000121294
0.000125383
0.000129266
0.00013295
0.00013644
0.000139743
0.000142866
0.000145818
0.000148604
0.000151235
0.000153717
0.000156059
0.000158267
0.000160349
0.000162313
0.000164164
0.00016591
0.000167557
0.000169111
0.000170576
0.000171958
0.000173263
0.000174495
0.000175659
0.000176759
0.000177797
0.000178779
0.000179707
0.000180585
0.000181415
0.000182201
0.000182944
0.000183647
0.000184312
0.000184942
0.000185538
0.000186102
0.000186636
0.000187141
0.000187619
0.000188071
0.000188498
0.000188902
0.000189283
0.000189642
0.000189981
0.0001903
0.0001906
0.000190882
0.000191146
0.000191393
0.000191624
0.000191839
0.000192038
0.000192223
0.000192394
0.00019255
0.000192693
0.000192821
0.000192937
0.00019304
0.00019313
0.000193208
0.000193274
0.000193327
0.000193368
0.000193398
0.000193416
0.000193421
0.000193416
0.000193398
0.000193368
0.000193327
0.000193273
0.000193207
0.000193129
0.000193039
0.000192937
0.000192821
0.000192693
0.000192551
0.000192397
0.000192228
0.000192046
0.000191848
0.000191636
0.000191409
0.000191166
0.000190907
0.000190631
0.000190337
0.000190026
0.000189695
0.000189346
0.000188975
0.000188584
0.000188171
0.000187734
0.000187273
0.000186786
0.000186272
0.000185731
0.000185159
0.000184557
0.000183921
0.000183251
0.000182544
0.000181798
0.000181011
0.00018018
0.000179303
0.000178378
0.0001774
0.000176367
0.000175275
0.00017412
0.000172898
0.000171607
0.000170241
0.000168794
0.000167263
0.000165641
0.000163923
0.000162102
0.000160172
0.000158127
0.000155959
0.000153661
0.000151224
0.000148643
0.000145907
0.000143008
0.000139939
0.00013669
0.000133254
0.000129621
0.000125784
0.000121736
0.00011747
0.000112981
0.000108264
0.000103318
9.81391e-05
9.27308e-05
8.70966e-05
8.12435e-05
7.51824e-05
6.89277e-05
6.24987e-05
5.59201e-05
4.92222e-05
4.24419e-05
3.56223e-05
2.88137e-05
2.20749e-05
1.54725e-05
9.08143e-06
2.98449e-06
-2.72811e-06
-7.95923e-06
-1.26072e-05
-1.65682e-05
-1.97421e-05
-2.20388e-05
-2.3392e-05
-2.37769e-05
-2.324e-05
-2.1946e-05
-2.0266e-05
-1.8784e-05
-0.000172281
-0.000173685
-0.000174919
-0.000175721
-0.000175893
-0.000175323
-0.000173978
-0.000171872
-0.000169049
-0.000165576
-0.000161527
-0.000156983
-0.000152025
-0.000146731
-0.000141174
-0.000135425
-0.000129544
-0.00012359
-0.000117612
-0.000111653
-0.000105752
-9.99415e-05
-9.42491e-05
-8.86969e-05
-8.3303e-05
-7.80818e-05
-7.30438e-05
-6.81961e-05
-6.3544e-05
-5.90896e-05
-5.48329e-05
-5.0773e-05
-4.69074e-05
-4.32316e-05
-3.97413e-05
-3.64309e-05
-3.32938e-05
-3.03234e-05
-2.75132e-05
-2.4856e-05
-2.23445e-05
-1.99723e-05
-1.7732e-05
-1.56164e-05
-1.36194e-05
-1.17347e-05
-9.95577e-06
-8.27669e-06
-6.69138e-06
-5.19447e-06
-3.78133e-06
-2.44719e-06
-1.18701e-06
3.60706e-09
1.12846e-06
2.19146e-06
3.19637e-06
4.1465e-06
5.04487e-06
5.89446e-06
6.69819e-06
7.45866e-06
8.17819e-06
8.859e-06
9.50316e-06
1.01126e-05
1.06893e-05
1.12349e-05
1.17511e-05
1.22393e-05
1.27007e-05
1.31368e-05
1.35487e-05
1.39374e-05
1.43039e-05
1.46493e-05
1.49745e-05
1.52804e-05
1.55676e-05
1.58367e-05
1.60884e-05
1.63235e-05
1.65426e-05
1.6746e-05
1.6934e-05
1.71073e-05
1.72663e-05
1.74115e-05
1.75429e-05
1.76605e-05
1.77648e-05
1.78564e-05
1.79357e-05
1.80027e-05
1.80574e-05
1.80997e-05
1.81297e-05
1.81475e-05
1.81533e-05
1.81472e-05
1.81292e-05
1.80995e-05
1.80577e-05
1.80035e-05
1.79367e-05
1.78573e-05
1.77656e-05
1.76614e-05
1.75444e-05
1.74142e-05
1.72705e-05
1.71131e-05
1.69418e-05
1.67562e-05
1.65558e-05
1.63402e-05
1.6109e-05
1.58619e-05
1.55985e-05
1.53178e-05
1.50191e-05
1.47018e-05
1.43653e-05
1.40089e-05
1.36318e-05
1.32329e-05
1.28113e-05
1.23659e-05
1.18956e-05
1.13989e-05
1.08746e-05
1.03212e-05
9.73735e-06
9.12163e-06
8.47237e-06
7.78758e-06
7.06489e-06
6.302e-06
5.49666e-06
4.64648e-06
3.74886e-06
2.80109e-06
1.80041e-06
7.43705e-07
-3.7298e-07
-1.55403e-06
-2.80353e-06
-4.12521e-06
-5.52314e-06
-7.00198e-06
-8.56674e-06
-1.02227e-05
-1.19755e-05
-1.38316e-05
-1.57972e-05
-1.78789e-05
-2.00834e-05
-2.24176e-05
-2.48889e-05
-2.75045e-05
-3.0272e-05
-3.3199e-05
-3.62932e-05
-3.95621e-05
-4.30133e-05
-4.66534e-05
-5.04894e-05
-5.45273e-05
-5.87723e-05
-6.32286e-05
-6.78987e-05
-7.27836e-05
-7.78827e-05
-8.31934e-05
-8.87098e-05
-9.44234e-05
-0.000100322
-0.00010639
-0.000112608
-0.00011895
-0.000125386
-0.00013188
-0.000138391
-0.00014487
-0.000151263
-0.000157507
-0.000163534
-0.000169269
-0.000174632
-0.000179538
-0.0001839
-0.000187632
-0.000190653
-0.000192893
-0.000194305
-0.000194877
-0.00019465
-0.000193747
-0.00019239
-0.000190861
-0.000517773
-0.000519601
-0.000520913
-0.000521639
-0.000521728
-0.000521117
-0.000519795
-0.000517778
-0.000515105
-0.000511833
-0.000508024
-0.00050375
-0.00049908
-0.000494085
-0.00048883
-0.000483379
-0.000477789
-0.000472113
-0.000466399
-0.000460687
-0.000455014
-0.000449413
-0.00044391
-0.000438527
-0.000433284
-0.000428195
-0.000423272
-0.000418523
-0.000413954
-0.000409568
-0.000405367
-0.000401352
-0.000397519
-0.000393868
-0.000390393
-0.000387092
-0.000383957
-0.000380985
-0.000378167
-0.000375499
-0.000372973
-0.000370584
-0.000368325
-0.00036619
-0.000364172
-0.000362265
-0.000360463
-0.000358762
-0.000357154
-0.000355635
-0.000354201
-0.000352845
-0.000351565
-0.000350354
-0.00034921
-0.000348129
-0.000347106
-0.000346139
-0.000345225
-0.00034436
-0.000343542
-0.000342769
-0.000342036
-0.000341343
-0.000340688
-0.000340068
-0.000339481
-0.000338926
-0.000338401
-0.000337905
-0.000337436
-0.000336992
-0.000336574
-0.000336179
-0.000335807
-0.000335456
-0.000335126
-0.000334815
-0.000334523
-0.00033425
-0.000333995
-0.000333756
-0.000333534
-0.000333328
-0.000333137
-0.000332961
-0.0003328
-0.000332653
-0.000332519
-0.0003324
-0.000332294
-0.000332201
-0.000332121
-0.000332053
-0.000331998
-0.000331955
-0.000331924
-0.000331906
-0.000331899
-0.000331906
-0.000331924
-0.000331954
-0.000331997
-0.000332052
-0.000332119
-0.000332199
-0.000332292
-0.000332398
-0.000332516
-0.000332648
-0.000332793
-0.000332953
-0.000333126
-0.000333315
-0.000333518
-0.000333736
-0.00033397
-0.000334221
-0.000334488
-0.000334773
-0.000335076
-0.000335397
-0.000335739
-0.0003361
-0.000336483
-0.000336888
-0.000337316
-0.000337769
-0.000338247
-0.000338751
-0.000339284
-0.000339847
-0.00034044
-0.000341066
-0.000341727
-0.000342424
-0.000343159
-0.000343935
-0.000344755
-0.000345619
-0.000346532
-0.000347497
-0.000348516
-0.000349592
-0.000350728
-0.000351929
-0.000353199
-0.000354542
-0.000355962
-0.000357464
-0.000359053
-0.000360733
-0.000362511
-0.000364392
-0.000366383
-0.000368488
-0.000370715
-0.000373071
-0.000375562
-0.000378195
-0.000380978
-0.000383916
-0.000387018
-0.000390289
-0.000393737
-0.000397367
-0.000401185
-0.000405196
-0.000409403
-0.00041381
-0.000418418
-0.000423226
-0.000428234
-0.000433435
-0.000438825
-0.000444392
-0.000450125
-0.000456007
-0.000462016
-0.000468129
-0.000474315
-0.000480541
-0.000486764
-0.000492939
-0.000499016
-0.000504935
-0.000510635
-0.000516047
-0.000521099
-0.000525716
-0.000529821
-0.00053334
-0.000536203
-0.000538353
-0.000539748
-0.000540371
-0.000540241
-0.000539426
-0.00053799
-0.000536006
-0.00103638
-0.00103872
-0.00104028
-0.00104111
-0.00104125
-0.00104069
-0.00103944
-0.00103754
-0.00103502
-0.00103194
-0.00102835
-0.00102432
-0.00101992
-0.00101519
-0.00101022
-0.00100505
-0.00099973
-0.000994319
-0.000988857
-0.000983385
-0.000977937
-0.000972545
-0.000967234
-0.000962027
-0.000956943
-0.000951996
-0.000947199
-0.000942561
-0.000938088
-0.000933786
-0.000929657
-0.000925701
-0.000921918
-0.000918307
-0.000914865
-0.000911587
-0.000908471
-0.00090551
-0.000902699
-0.000900034
-0.000897508
-0.000895114
-0.000892849
-0.000890705
-0.000888676
-0.000886757
-0.000884943
-0.000883228
-0.000881606
-0.000880073
-0.000878624
-0.000877254
-0.000875959
-0.000874735
-0.000873578
-0.000872483
-0.000871447
-0.000870468
-0.000869542
-0.000868666
-0.000867837
-0.000867053
-0.000866311
-0.000865609
-0.000864945
-0.000864316
-0.000863721
-0.000863159
-0.000862627
-0.000862125
-0.000861649
-0.0008612
-0.000860776
-0.000860376
-0.000859999
-0.000859644
-0.00085931
-0.000858996
-0.0008587
-0.000858424
-0.000858165
-0.000857924
-0.000857699
-0.00085749
-0.000857297
-0.000857119
-0.000856956
-0.000856807
-0.000856673
-0.000856552
-0.000856444
-0.00085635
-0.000856269
-0.0008562
-0.000856144
-0.000856101
-0.00085607
-0.000856052
-0.000856045
-0.000856051
-0.000856069
-0.0008561
-0.000856143
-0.000856199
-0.000856267
-0.000856348
-0.000856441
-0.000856548
-0.000856668
-0.000856801
-0.000856948
-0.000857109
-0.000857285
-0.000857475
-0.00085768
-0.000857901
-0.000858137
-0.000858391
-0.000858661
-0.000858949
-0.000859255
-0.000859581
-0.000859926
-0.000860292
-0.00086068
-0.000861089
-0.000861523
-0.000861981
-0.000862465
-0.000862976
-0.000863516
-0.000864085
-0.000864686
-0.000865321
-0.00086599
-0.000866696
-0.000867442
-0.000868229
-0.000869059
-0.000869935
-0.00087086
-0.000871836
-0.000872868
-0.000873958
-0.000875109
-0.000876325
-0.00087761
-0.000878969
-0.000880404
-0.000881922
-0.000883526
-0.000885222
-0.000887015
-0.000888911
-0.000890915
-0.000893033
-0.000895272
-0.000897637
-0.000900136
-0.000902773
-0.000905556
-0.000908492
-0.000911585
-0.000914843
-0.00091827
-0.000921873
-0.000925655
-0.000929621
-0.000933773
-0.000938114
-0.000942643
-0.000947359
-0.00095226
-0.000957339
-0.00096259
-0.000968001
-0.000973561
-0.00097925
-0.00098505
-0.000990934
-0.000996875
-0.00100284
-0.00100879
-0.00101467
-0.00102045
-0.00102607
-0.00103147
-0.00103659
-0.00104135
-0.00104571
-0.00104958
-0.00105289
-0.00105559
-0.00105763
-0.00105894
-0.00105952
-0.00105934
-0.00105842
-0.00105671
-0.00105417
-0.00172748
-0.00173028
-0.00173213
-0.00173312
-0.00173338
-0.00173292
-0.00173179
-0.00173002
-0.00172766
-0.00172477
-0.0017214
-0.00171761
-0.00171345
-0.00170899
-0.00170428
-0.00169938
-0.00169433
-0.00168918
-0.00168396
-0.00167873
-0.00167351
-0.00166833
-0.00166321
-0.00165819
-0.00165327
-0.00164848
-0.00164382
-0.0016393
-0.00163494
-0.00163074
-0.00162669
-0.00162281
-0.00161909
-0.00161553
-0.00161214
-0.0016089
-0.00160581
-0.00160288
-0.00160009
-0.00159744
-0.00159492
-0.00159253
-0.00159027
-0.00158813
-0.0015861
-0.00158418
-0.00158236
-0.00158064
-0.00157901
-0.00157747
-0.00157602
-0.00157464
-0.00157333
-0.0015721
-0.00157093
-0.00156983
-0.00156879
-0.0015678
-0.00156686
-0.00156598
-0.00156514
-0.00156435
-0.0015636
-0.00156289
-0.00156222
-0.00156159
-0.00156099
-0.00156042
-0.00155988
-0.00155938
-0.0015589
-0.00155844
-0.00155801
-0.00155761
-0.00155723
-0.00155687
-0.00155653
-0.00155622
-0.00155592
-0.00155564
-0.00155538
-0.00155513
-0.00155491
-0.0015547
-0.0015545
-0.00155432
-0.00155416
-0.00155401
-0.00155387
-0.00155375
-0.00155364
-0.00155355
-0.00155346
-0.00155339
-0.00155334
-0.00155329
-0.00155326
-0.00155324
-0.00155324
-0.00155324
-0.00155326
-0.00155329
-0.00155334
-0.00155339
-0.00155346
-0.00155354
-0.00155364
-0.00155375
-0.00155387
-0.001554
-0.00155415
-0.00155431
-0.00155449
-0.00155468
-0.00155489
-0.00155511
-0.00155535
-0.0015556
-0.00155588
-0.00155617
-0.00155648
-0.0015568
-0.00155715
-0.00155752
-0.00155791
-0.00155833
-0.00155876
-0.00155923
-0.00155972
-0.00156023
-0.00156078
-0.00156135
-0.00156196
-0.0015626
-0.00156328
-0.00156399
-0.00156474
-0.00156554
-0.00156637
-0.00156726
-0.00156819
-0.00156918
-0.00157022
-0.00157132
-0.00157248
-0.0015737
-0.001575
-0.00157637
-0.00157781
-0.00157934
-0.00158095
-0.00158265
-0.00158445
-0.00158636
-0.00158836
-0.00159049
-0.00159273
-0.00159509
-0.00159758
-0.00160021
-0.00160298
-0.0016059
-0.00160897
-0.0016122
-0.0016156
-0.00161916
-0.00162289
-0.00162679
-0.00163087
-0.00163513
-0.00163957
-0.00164418
-0.00164896
-0.0016539
-0.001659
-0.00166425
-0.00166962
-0.00167511
-0.0016807
-0.00168635
-0.00169205
-0.00169775
-0.00170343
-0.00170903
-0.00171453
-0.00171985
-0.00172496
-0.0017298
-0.0017343
-0.0017384
-0.00174203
-0.00174515
-0.00174768
-0.00174957
-0.00175077
-0.00175124
-0.00175093
-0.00174984
-0.00174783
-0.00174478
-0.00258994
-0.00259311
-0.00259522
-0.00259639
-0.00259679
-0.00259646
-0.00259546
-0.00259384
-0.00259166
-0.00258896
-0.0025858
-0.00258223
-0.00257832
-0.00257411
-0.00256966
-0.00256502
-0.00256022
-0.00255532
-0.00255036
-0.00254536
-0.00254037
-0.0025354
-0.00253049
-0.00252565
-0.00252091
-0.00251627
-0.00251176
-0.00250738
-0.00250314
-0.00249904
-0.0024951
-0.0024913
-0.00248766
-0.00248417
-0.00248084
-0.00247765
-0.00247461
-0.00247171
-0.00246895
-0.00246633
-0.00246383
-0.00246146
-0.00245922
-0.00245709
-0.00245506
-0.00245315
-0.00245134
-0.00244962
-0.00244799
-0.00244645
-0.00244499
-0.00244361
-0.0024423
-0.00244107
-0.0024399
-0.00243879
-0.00243774
-0.00243675
-0.00243581
-0.00243492
-0.00243408
-0.00243328
-0.00243253
-0.00243182
-0.00243114
-0.0024305
-0.0024299
-0.00242933
-0.00242879
-0.00242828
-0.00242779
-0.00242734
-0.00242691
-0.0024265
-0.00242612
-0.00242575
-0.00242541
-0.00242509
-0.00242479
-0.00242451
-0.00242425
-0.002424
-0.00242378
-0.00242356
-0.00242337
-0.00242319
-0.00242302
-0.00242287
-0.00242273
-0.00242261
-0.0024225
-0.00242241
-0.00242232
-0.00242225
-0.0024222
-0.00242215
-0.00242212
-0.0024221
-0.0024221
-0.0024221
-0.00242212
-0.00242215
-0.0024222
-0.00242225
-0.00242232
-0.0024224
-0.0024225
-0.00242261
-0.00242273
-0.00242286
-0.00242301
-0.00242318
-0.00242335
-0.00242355
-0.00242375
-0.00242398
-0.00242422
-0.00242448
-0.00242475
-0.00242504
-0.00242535
-0.00242568
-0.00242604
-0.00242641
-0.0024268
-0.00242722
-0.00242766
-0.00242812
-0.00242861
-0.00242913
-0.00242968
-0.00243026
-0.00243087
-0.00243152
-0.0024322
-0.00243292
-0.00243367
-0.00243447
-0.00243532
-0.00243621
-0.00243714
-0.00243814
-0.00243918
-0.00244028
-0.00244145
-0.00244268
-0.00244398
-0.00244535
-0.0024468
-0.00244833
-0.00244994
-0.00245165
-0.00245345
-0.00245535
-0.00245735
-0.00245946
-0.00246169
-0.00246404
-0.00246652
-0.00246913
-0.00247188
-0.00247477
-0.0024778
-0.00248099
-0.00248434
-0.00248784
-0.00249151
-0.00249534
-0.00249933
-0.0025035
-0.00250783
-0.00251231
-0.00251696
-0.00252176
-0.0025267
-0.00253177
-0.00253695
-0.00254224
-0.0025476
-0.00255302
-0.00255847
-0.00256392
-0.00256933
-0.00257466
-0.00257987
-0.00258492
-0.00258975
-0.00259432
-0.00259855
-0.00260241
-0.00260582
-0.00260873
-0.00261108
-0.00261281
-0.00261387
-0.0026142
-0.00261375
-0.00261246
-0.00261017
-0.00260671
-0.00362219
-0.00362563
-0.00362794
-0.00362927
-0.00362982
-0.00362963
-0.00362877
-0.00362731
-0.00362529
-0.00362278
-0.00361983
-0.00361649
-0.00361281
-0.00360885
-0.00360465
-0.00360026
-0.00359572
-0.00359107
-0.00358634
-0.00358158
-0.00357682
-0.00357207
-0.00356736
-0.00356272
-0.00355816
-0.00355369
-0.00354934
-0.0035451
-0.00354099
-0.00353701
-0.00353318
-0.00352948
-0.00352593
-0.00352252
-0.00351926
-0.00351613
-0.00351315
-0.0035103
-0.00350758
-0.003505
-0.00350253
-0.00350019
-0.00349797
-0.00349586
-0.00349386
-0.00349196
-0.00349015
-0.00348844
-0.00348683
-0.00348529
-0.00348384
-0.00348246
-0.00348116
-0.00347992
-0.00347875
-0.00347765
-0.0034766
-0.0034756
-0.00347466
-0.00347377
-0.00347293
-0.00347213
-0.00347138
-0.00347066
-0.00346999
-0.00346935
-0.00346874
-0.00346817
-0.00346762
-0.00346711
-0.00346662
-0.00346617
-0.00346573
-0.00346533
-0.00346494
-0.00346458
-0.00346424
-0.00346392
-0.00346361
-0.00346333
-0.00346307
-0.00346282
-0.00346259
-0.00346238
-0.00346218
-0.003462
-0.00346183
-0.00346168
-0.00346154
-0.00346142
-0.00346131
-0.00346122
-0.00346113
-0.00346106
-0.00346101
-0.00346096
-0.00346093
-0.00346091
-0.0034609
-0.00346091
-0.00346093
-0.00346096
-0.003461
-0.00346106
-0.00346113
-0.00346121
-0.00346131
-0.00346142
-0.00346154
-0.00346167
-0.00346182
-0.00346199
-0.00346217
-0.00346236
-0.00346257
-0.00346279
-0.00346304
-0.00346329
-0.00346357
-0.00346386
-0.00346418
-0.00346451
-0.00346486
-0.00346523
-0.00346563
-0.00346605
-0.00346649
-0.00346696
-0.00346745
-0.00346797
-0.00346852
-0.0034691
-0.00346972
-0.00347036
-0.00347105
-0.00347177
-0.00347253
-0.00347333
-0.00347417
-0.00347506
-0.003476
-0.003477
-0.00347804
-0.00347915
-0.00348031
-0.00348154
-0.00348284
-0.00348421
-0.00348566
-0.00348718
-0.00348879
-0.00349049
-0.00349228
-0.00349417
-0.00349616
-0.00349826
-0.00350047
-0.0035028
-0.00350525
-0.00350783
-0.00351054
-0.00351338
-0.00351637
-0.00351951
-0.00352279
-0.00352622
-0.00352981
-0.00353356
-0.00353745
-0.00354151
-0.00354572
-0.00355007
-0.00355458
-0.00355922
-0.00356398
-0.00356887
-0.00357386
-0.00357893
-0.00358407
-0.00358926
-0.00359446
-0.00359965
-0.00360479
-0.00360985
-0.00361479
-0.00361957
-0.00362413
-0.00362843
-0.00363242
-0.00363603
-0.00363923
-0.00364193
-0.0036441
-0.00364567
-0.00364657
-0.00364676
-0.00364615
-0.00364469
-0.00364216
-0.00363842
-0.00482228
-0.00482588
-0.00482834
-0.00482981
-0.00483048
-0.00483042
-0.00482971
-0.0048284
-0.00482656
-0.00482423
-0.00482149
-0.00481836
-0.00481492
-0.00481119
-0.00480723
-0.00480309
-0.0047988
-0.00479439
-0.00478991
-0.00478539
-0.00478085
-0.00477632
-0.00477182
-0.00476738
-0.00476301
-0.00475872
-0.00475453
-0.00475044
-0.00474648
-0.00474263
-0.00473892
-0.00473533
-0.00473188
-0.00472856
-0.00472538
-0.00472233
-0.00471941
-0.00471662
-0.00471396
-0.00471142
-0.004709
-0.0047067
-0.00470451
-0.00470243
-0.00470045
-0.00469857
-0.00469679
-0.00469509
-0.00469349
-0.00469197
-0.00469052
-0.00468916
-0.00468786
-0.00468663
-0.00468547
-0.00468437
-0.00468332
-0.00468233
-0.00468139
-0.00468051
-0.00467966
-0.00467887
-0.00467811
-0.0046774
-0.00467672
-0.00467608
-0.00467548
-0.0046749
-0.00467436
-0.00467385
-0.00467336
-0.0046729
-0.00467247
-0.00467206
-0.00467167
-0.00467131
-0.00467097
-0.00467065
-0.00467035
-0.00467006
-0.0046698
-0.00466955
-0.00466932
-0.00466911
-0.00466891
-0.00466873
-0.00466856
-0.00466841
-0.00466827
-0.00466815
-0.00466804
-0.00466794
-0.00466786
-0.00466779
-0.00466773
-0.00466769
-0.00466766
-0.00466764
-0.00466763
-0.00466764
-0.00466766
-0.00466769
-0.00466773
-0.00466779
-0.00466786
-0.00466794
-0.00466804
-0.00466814
-0.00466827
-0.0046684
-0.00466855
-0.00466872
-0.0046689
-0.00466909
-0.0046693
-0.00466952
-0.00466977
-0.00467002
-0.0046703
-0.00467059
-0.00467091
-0.00467124
-0.00467159
-0.00467197
-0.00467236
-0.00467278
-0.00467322
-0.00467369
-0.00467419
-0.00467471
-0.00467526
-0.00467584
-0.00467645
-0.0046771
-0.00467778
-0.0046785
-0.00467926
-0.00468007
-0.00468091
-0.0046818
-0.00468274
-0.00468373
-0.00468477
-0.00468587
-0.00468704
-0.00468826
-0.00468955
-0.00469092
-0.00469235
-0.00469387
-0.00469546
-0.00469715
-0.00469892
-0.00470079
-0.00470276
-0.00470484
-0.00470702
-0.00470932
-0.00471173
-0.00471427
-0.00471693
-0.00471973
-0.00472266
-0.00472573
-0.00472894
-0.00473229
-0.00473579
-0.00473943
-0.00474322
-0.00474715
-0.00475123
-0.00475544
-0.00475979
-0.00476426
-0.00476885
-0.00477354
-0.00477833
-0.00478319
-0.0047881
-0.00479304
-0.004798
-0.00480293
-0.00480781
-0.00481261
-0.00481728
-0.00482179
-0.00482609
-0.00483013
-0.00483387
-0.00483725
-0.00484023
-0.00484273
-0.00484472
-0.00484612
-0.00484688
-0.00484692
-0.00484617
-0.00484457
-0.00484188
-0.00483796
-0.00618792
-0.0061916
-0.00619414
-0.0061957
-0.00619647
-0.00619654
-0.00619596
-0.0061948
-0.00619312
-0.00619098
-0.00618843
-0.00618552
-0.0061823
-0.00617881
-0.00617509
-0.00617119
-0.00616715
-0.00616299
-0.00615875
-0.00615446
-0.00615015
-0.00614584
-0.00614156
-0.00613732
-0.00613314
-0.00612903
-0.00612501
-0.00612109
-0.00611728
-0.00611357
-0.00610998
-0.00610652
-0.00610318
-0.00609996
-0.00609687
-0.0060939
-0.00609106
-0.00608834
-0.00608574
-0.00608326
-0.0060809
-0.00607864
-0.00607649
-0.00607445
-0.0060725
-0.00607065
-0.00606889
-0.00606723
-0.00606564
-0.00606414
-0.00606271
-0.00606136
-0.00606008
-0.00605886
-0.0060577
-0.00605661
-0.00605557
-0.00605459
-0.00605366
-0.00605278
-0.00605194
-0.00605115
-0.00605039
-0.00604968
-0.00604901
-0.00604837
-0.00604777
-0.00604719
-0.00604665
-0.00604614
-0.00604566
-0.0060452
-0.00604477
-0.00604436
-0.00604397
-0.00604361
-0.00604327
-0.00604295
-0.00604265
-0.00604236
-0.0060421
-0.00604185
-0.00604162
-0.00604141
-0.00604121
-0.00604103
-0.00604086
-0.00604071
-0.00604057
-0.00604045
-0.00604034
-0.00604024
-0.00604016
-0.00604009
-0.00604003
-0.00603999
-0.00603996
-0.00603994
-0.00603993
-0.00603994
-0.00603996
-0.00603999
-0.00604003
-0.00604009
-0.00604016
-0.00604024
-0.00604034
-0.00604045
-0.00604057
-0.0060407
-0.00604085
-0.00604102
-0.0060412
-0.00604139
-0.0060416
-0.00604183
-0.00604207
-0.00604233
-0.0060426
-0.0060429
-0.00604321
-0.00604354
-0.00604389
-0.00604427
-0.00604466
-0.00604508
-0.00604552
-0.00604599
-0.00604648
-0.006047
-0.00604755
-0.00604814
-0.00604875
-0.00604939
-0.00605007
-0.00605079
-0.00605155
-0.00605235
-0.00605319
-0.00605407
-0.00605501
-0.00605599
-0.00605703
-0.00605812
-0.00605928
-0.00606049
-0.00606177
-0.00606312
-0.00606454
-0.00606604
-0.00606762
-0.00606929
-0.00607104
-0.00607288
-0.00607482
-0.00607686
-0.00607901
-0.00608127
-0.00608364
-0.00608612
-0.00608873
-0.00609146
-0.00609433
-0.00609732
-0.00610044
-0.0061037
-0.0061071
-0.00611063
-0.0061143
-0.0061181
-0.00612204
-0.0061261
-0.00613028
-0.00613458
-0.00613898
-0.00614347
-0.00614805
-0.00615268
-0.00615736
-0.00616207
-0.00616677
-0.00617145
-0.00617607
-0.0061806
-0.00618501
-0.00618926
-0.0061933
-0.00619709
-0.00620059
-0.00620374
-0.0062065
-0.00620882
-0.00621062
-0.00621186
-0.00621248
-0.00621239
-0.00621153
-0.00620982
-0.00620705
-0.00620304
-0.00771651
-0.00772017
-0.00772273
-0.00772435
-0.00772521
-0.00772537
-0.00772491
-0.00772389
-0.00772238
-0.00772042
-0.00771806
-0.00771536
-0.00771236
-0.00770909
-0.00770561
-0.00770195
-0.00769815
-0.00769423
-0.00769023
-0.00768618
-0.0076821
-0.00767802
-0.00767395
-0.00766992
-0.00766594
-0.00766202
-0.00765818
-0.00765443
-0.00765077
-0.00764721
-0.00764376
-0.00764043
-0.0076372
-0.0076341
-0.00763111
-0.00762824
-0.00762548
-0.00762284
-0.00762031
-0.0076179
-0.00761559
-0.00761339
-0.00761129
-0.00760929
-0.00760738
-0.00760557
-0.00760385
-0.00760221
-0.00760065
-0.00759917
-0.00759777
-0.00759643
-0.00759517
-0.00759397
-0.00759283
-0.00759174
-0.00759072
-0.00758975
-0.00758882
-0.00758795
-0.00758712
-0.00758633
-0.00758559
-0.00758488
-0.00758421
-0.00758358
-0.00758298
-0.00758241
-0.00758187
-0.00758136
-0.00758088
-0.00758042
-0.00757999
-0.00757959
-0.0075792
-0.00757884
-0.0075785
-0.00757818
-0.00757788
-0.0075776
-0.00757733
-0.00757709
-0.00757686
-0.00757665
-0.00757645
-0.00757627
-0.0075761
-0.00757595
-0.00757581
-0.00757569
-0.00757558
-0.00757549
-0.0075754
-0.00757533
-0.00757528
-0.00757523
-0.0075752
-0.00757518
-0.00757518
-0.00757518
-0.0075752
-0.00757523
-0.00757528
-0.00757533
-0.0075754
-0.00757548
-0.00757558
-0.00757569
-0.00757581
-0.00757594
-0.00757609
-0.00757626
-0.00757644
-0.00757663
-0.00757684
-0.00757706
-0.0075773
-0.00757756
-0.00757784
-0.00757813
-0.00757844
-0.00757877
-0.00757912
-0.0075795
-0.00757989
-0.00758031
-0.00758075
-0.00758121
-0.00758171
-0.00758222
-0.00758277
-0.00758335
-0.00758396
-0.0075846
-0.00758528
-0.00758599
-0.00758674
-0.00758753
-0.00758837
-0.00758925
-0.00759017
-0.00759115
-0.00759218
-0.00759326
-0.0075944
-0.0075956
-0.00759687
-0.0075982
-0.0075996
-0.00760108
-0.00760264
-0.00760427
-0.007606
-0.00760781
-0.00760971
-0.00761171
-0.00761382
-0.00761602
-0.00761834
-0.00762076
-0.00762331
-0.00762597
-0.00762875
-0.00763166
-0.00763469
-0.00763785
-0.00764113
-0.00764454
-0.00764808
-0.00765174
-0.00765553
-0.00765943
-0.00766344
-0.00766755
-0.00767176
-0.00767605
-0.0076804
-0.00768481
-0.00768926
-0.00769372
-0.00769817
-0.0077026
-0.00770696
-0.00771123
-0.00771537
-0.00771936
-0.00772315
-0.00772669
-0.00772996
-0.00773289
-0.00773544
-0.00773756
-0.0077392
-0.00774029
-0.00774077
-0.00774058
-0.00773964
-0.00773786
-0.00773506
-0.00773106
-0.00940512
-0.00940871
-0.00941125
-0.00941288
-0.00941379
-0.00941403
-0.00941368
-0.0094128
-0.00941143
-0.00940964
-0.00940747
-0.00940498
-0.00940219
-0.00939915
-0.0093959
-0.00939248
-0.00938891
-0.00938524
-0.00938148
-0.00937766
-0.00937382
-0.00936996
-0.00936611
-0.00936229
-0.00935851
-0.00935479
-0.00935113
-0.00934755
-0.00934406
-0.00934066
-0.00933736
-0.00933416
-0.00933106
-0.00932807
-0.00932519
-0.00932242
-0.00931976
-0.00931721
-0.00931476
-0.00931242
-0.00931018
-0.00930804
-0.00930599
-0.00930405
-0.00930219
-0.00930042
-0.00929873
-0.00929713
-0.00929561
-0.00929416
-0.00929278
-0.00929147
-0.00929022
-0.00928904
-0.00928792
-0.00928686
-0.00928584
-0.00928488
-0.00928397
-0.00928311
-0.00928229
-0.00928151
-0.00928078
-0.00928008
-0.00927941
-0.00927879
-0.00927819
-0.00927763
-0.00927709
-0.00927659
-0.00927611
-0.00927566
-0.00927523
-0.00927483
-0.00927445
-0.00927409
-0.00927375
-0.00927343
-0.00927313
-0.00927285
-0.00927259
-0.00927235
-0.00927212
-0.00927191
-0.00927171
-0.00927153
-0.00927136
-0.00927121
-0.00927108
-0.00927095
-0.00927085
-0.00927075
-0.00927067
-0.0092706
-0.00927054
-0.0092705
-0.00927047
-0.00927045
-0.00927044
-0.00927045
-0.00927047
-0.0092705
-0.00927054
-0.0092706
-0.00927067
-0.00927075
-0.00927084
-0.00927095
-0.00927107
-0.00927121
-0.00927136
-0.00927152
-0.0092717
-0.00927189
-0.0092721
-0.00927232
-0.00927256
-0.00927282
-0.00927309
-0.00927338
-0.00927369
-0.00927402
-0.00927437
-0.00927474
-0.00927513
-0.00927555
-0.00927599
-0.00927645
-0.00927694
-0.00927745
-0.009278
-0.00927857
-0.00927917
-0.00927981
-0.00928048
-0.00928119
-0.00928193
-0.00928271
-0.00928354
-0.00928441
-0.00928532
-0.00928629
-0.0092873
-0.00928837
-0.00928949
-0.00929068
-0.00929192
-0.00929323
-0.00929461
-0.00929606
-0.00929759
-0.0092992
-0.00930088
-0.00930265
-0.00930452
-0.00930647
-0.00930852
-0.00931067
-0.00931293
-0.00931528
-0.00931775
-0.00932033
-0.00932303
-0.00932584
-0.00932877
-0.00933181
-0.00933498
-0.00933826
-0.00934166
-0.00934518
-0.0093488
-0.00935253
-0.00935636
-0.00936029
-0.00936429
-0.00936837
-0.0093725
-0.00937669
-0.00938089
-0.00938511
-0.00938931
-0.00939348
-0.00939758
-0.00940159
-0.00940548
-0.00940921
-0.00941274
-0.00941605
-0.00941908
-0.0094218
-0.00942415
-0.00942609
-0.00942756
-0.00942851
-0.00942889
-0.00942861
-0.0094276
-0.00942581
-0.00942303
-0.00941911
-0.0112506
-0.0112541
-0.0112565
-0.0112581
-0.0112591
-0.0112594
-0.0112591
-0.0112584
-0.0112571
-0.0112555
-0.0112535
-0.0112512
-0.0112486
-0.0112458
-0.0112428
-0.0112396
-0.0112363
-0.0112329
-0.0112293
-0.0112258
-0.0112221
-0.0112185
-0.0112149
-0.0112113
-0.0112077
-0.0112042
-0.0112007
-0.0111973
-0.011194
-0.0111908
-0.0111876
-0.0111845
-0.0111816
-0.0111787
-0.011176
-0.0111733
-0.0111707
-0.0111683
-0.0111659
-0.0111637
-0.0111615
-0.0111594
-0.0111574
-0.0111555
-0.0111537
-0.011152
-0.0111504
-0.0111488
-0.0111473
-0.0111459
-0.0111446
-0.0111433
-0.0111421
-0.0111409
-0.0111398
-0.0111388
-0.0111378
-0.0111368
-0.0111359
-0.0111351
-0.0111343
-0.0111335
-0.0111328
-0.0111321
-0.0111314
-0.0111308
-0.0111302
-0.0111297
-0.0111291
-0.0111286
-0.0111282
-0.0111277
-0.0111273
-0.0111269
-0.0111265
-0.0111262
-0.0111258
-0.0111255
-0.0111252
-0.0111249
-0.0111247
-0.0111244
-0.0111242
-0.011124
-0.0111238
-0.0111236
-0.0111235
-0.0111233
-0.0111232
-0.0111231
-0.011123
-0.0111229
-0.0111228
-0.0111227
-0.0111227
-0.0111226
-0.0111226
-0.0111226
-0.0111226
-0.0111226
-0.0111226
-0.0111226
-0.0111227
-0.0111227
-0.0111228
-0.0111229
-0.011123
-0.0111231
-0.0111232
-0.0111233
-0.0111235
-0.0111236
-0.0111238
-0.011124
-0.0111242
-0.0111244
-0.0111247
-0.0111249
-0.0111252
-0.0111255
-0.0111258
-0.0111261
-0.0111265
-0.0111268
-0.0111272
-0.0111276
-0.0111281
-0.0111285
-0.011129
-0.0111295
-0.01113
-0.0111306
-0.0111312
-0.0111318
-0.0111325
-0.0111332
-0.0111339
-0.0111347
-0.0111355
-0.0111364
-0.0111373
-0.0111382
-0.0111392
-0.0111403
-0.0111414
-0.0111425
-0.0111438
-0.011145
-0.0111464
-0.0111478
-0.0111493
-0.0111509
-0.0111525
-0.0111543
-0.0111561
-0.011158
-0.01116
-0.011162
-0.0111642
-0.0111665
-0.0111689
-0.0111714
-0.011174
-0.0111767
-0.0111795
-0.0111824
-0.0111855
-0.0111886
-0.0111919
-0.0111952
-0.0111987
-0.0112023
-0.0112059
-0.0112096
-0.0112134
-0.0112173
-0.0112212
-0.0112251
-0.0112291
-0.0112331
-0.011237
-0.0112409
-0.0112448
-0.0112485
-0.0112522
-0.0112557
-0.0112589
-0.011262
-0.0112648
-0.0112673
-0.0112695
-0.0112712
-0.0112726
-0.0112734
-0.0112737
-0.0112733
-0.0112723
-0.0112705
-0.0112678
-0.011264
-0.0132495
-0.0132528
-0.0132552
-0.0132567
-0.0132577
-0.013258
-0.0132578
-0.0132572
-0.0132561
-0.0132546
-0.0132528
-0.0132507
-0.0132483
-0.0132457
-0.0132429
-0.01324
-0.0132369
-0.0132337
-0.0132304
-0.0132271
-0.0132237
-0.0132203
-0.0132169
-0.0132135
-0.0132101
-0.0132068