/*--------------------------------*- C++ -*----------------------------------*\
| =========                 |                                                 |
| \\      /  F ield         | OpenFOAM: The Open Source CFD Toolbox           |
|  \\    /   O peration     | Version:  2412                                  |
|   \\  /    A nd           | Website:  www.openfoam.com                      |
|    \\/     M anipulation  |                                                 |
\*---------------------------------------------------------------------------*/
FoamFile
{
    version     2.0;
    format      ascii;
    arch        "LSB;label=32;scalar=64";
    class       volScalarField;
    location    "1000";
    object      p_rgh;
}
// * * * * * * * * * * * * * * * * * * * * * * * * * * * * * * * * * * * * * //

dimensions      [0 2 -2 0 0 0 0];

internalField   nonuniform List<scalar> 
40000
(
4.34443e-05
4.21162e-05
4.06124e-05
3.94772e-05
3.90465e-05
3.94696e-05
4.07847e-05
4.29656e-05
4.59509e-05
4.96539e-05
5.39842e-05
5.88422e-05
6.41369e-05
6.97774e-05
7.56806e-05
8.177e-05
8.79786e-05
9.42446e-05
0.000100515
0.000106744
0.000112891
0.000118924
0.000124816
0.000130544
0.000136092
0.000141445
0.000146595
0.000151535
0.000156262
0.000160776
0.000165078
0.00016917
0.000173057
0.000176743
0.000180236
0.000183542
0.000186667
0.000189621
0.000192409
0.000195042
0.000197525
0.000199869
0.000202078
0.000204162
0.000206127
0.000207978
0.000209725
0.000211373
0.000212927
0.000214393
0.000215776
0.000217082
0.000218314
0.000219478
0.000220578
0.000221617
0.000222599
0.000223527
0.000224405
0.000225236
0.000226021
0.000226764
0.000227468
0.000228133
0.000228763
0.000229359
0.000229924
0.000230458
0.000230963
0.00023144
0.000231892
0.00023232
0.000232723
0.000233104
0.000233464
0.000233802
0.000234121
0.000234421
0.000234703
0.000234967
0.000235215
0.000235445
0.00023566
0.00023586
0.000236045
0.000236215
0.000236372
0.000236514
0.000236643
0.000236758
0.000236861
0.000236952
0.00023703
0.000237095
0.000237149
0.00023719
0.000237219
0.000237237
0.000237243
0.000237237
0.000237219
0.00023719
0.000237148
0.000237095
0.000237029
0.000236951
0.000236861
0.000236758
0.000236642
0.000236514
0.000236373
0.000236218
0.00023605
0.000235867
0.00023567
0.000235458
0.00023523
0.000234987
0.000234728
0.000234452
0.000234159
0.000233847
0.000233517
0.000233167
0.000232797
0.000232405
0.000231992
0.000231555
0.000231094
0.000230608
0.000230094
0.000229552
0.00022898
0.000228378
0.000227742
0.000227072
0.000226365
0.000225619
0.000224831
0.000224
0.000223124
0.000222198
0.00022122
0.000220187
0.000219094
0.000217939
0.000216717
0.000215425
0.000214058
0.000212612
0.00021108
0.000209457
0.000207738
0.000205917
0.000203986
0.000201939
0.00019977
0.000197471
0.000195033
0.00019245
0.000189712
0.000186812
0.000183741
0.00018049
0.00017705
0.000173415
0.000169575
0.000165524
0.000161254
0.000156761
0.00015204
0.000147089
0.000141905
0.000136492
0.000130852
0.000124992
0.000118925
0.000112663
0.000106226
9.96392e-05
9.29327e-05
8.61431e-05
7.93136e-05
7.24946e-05
6.57448e-05
5.91307e-05
5.27273e-05
4.66173e-05
4.08911e-05
3.56456e-05
3.09825e-05
2.70058e-05
2.38154e-05
2.15014e-05
2.01303e-05
1.97268e-05
2.02443e-05
2.15183e-05
2.31778e-05
2.4639e-05
0.000218404
0.000217205
0.000216153
0.000215526
0.000215521
0.00021625
0.000217748
0.00022
0.000222962
0.000226568
0.000230744
0.000235408
0.00024048
0.000245883
0.000251543
0.00025739
0.000263362
0.000269403
0.000275463
0.000281499
0.000287472
0.00029335
0.000299105
0.000304717
0.000310165
0.000315438
0.000320523
0.000325415
0.000330108
0.000334601
0.000338892
0.000342984
0.000346879
0.000350582
0.000354097
0.00035743
0.000360588
0.000363578
0.000366405
0.000369078
0.000371603
0.000373988
0.00037624
0.000378366
0.000380373
0.000382266
0.000384052
0.000385738
0.000387329
0.000388832
0.00039025
0.000391588
0.000392852
0.000394046
0.000395174
0.000396239
0.000397246
0.000398199
0.000399099
0.00039995
0.000400755
0.000401516
0.000402237
0.000402919
0.000403563
0.000404174
0.000404751
0.000405297
0.000405813
0.000406302
0.000406764
0.0004072
0.000407612
0.000408001
0.000408368
0.000408713
0.000409038
0.000409344
0.000409632
0.000409901
0.000410153
0.000410388
0.000410607
0.00041081
0.000410998
0.000411172
0.000411331
0.000411476
0.000411607
0.000411725
0.000411829
0.000411921
0.000412
0.000412067
0.000412122
0.000412164
0.000412194
0.000412212
0.000412218
0.000412211
0.000412193
0.000412164
0.000412122
0.000412068
0.000412001
0.000411922
0.00041183
0.000411726
0.000411609
0.000411478
0.000411335
0.000411177
0.000411006
0.00041082
0.00041062
0.000410404
0.000410173
0.000409926
0.000409663
0.000409382
0.000409083
0.000408766
0.000408429
0.000408073
0.000407696
0.000407297
0.000406875
0.000406429
0.000405959
0.000405462
0.000404937
0.000404383
0.000403799
0.000403183
0.000402533
0.000401847
0.000401124
0.00040036
0.000399554
0.000398702
0.000397803
0.000396854
0.000395851
0.000394792
0.000393673
0.000392489
0.000391236
0.000389911
0.000388509
0.000387025
0.000385455
0.000383793
0.000382034
0.00038017
0.000378196
0.000376105
0.000373891
0.000371545
0.000369061
0.000366431
0.000363648
0.000360704
0.000357591
0.000354301
0.000350827
0.000347162
0.000343299
0.000339231
0.000334954
0.000330463
0.000325755
0.000320828
0.000315685
0.000310326
0.000304758
0.000298988
0.00029303
0.000286897
0.000280611
0.000274196
0.000267682
0.000261104
0.000254505
0.000247932
0.000241441
0.000235092
0.000228954
0.000223102
0.000217616
0.000212581
0.000208083
0.00020421
0.000201041
0.000198646
0.000197073
0.000196333
0.000196386
0.00019711
0.000198281
0.000199622
0.000566021
0.000564749
0.000563941
0.000563696
0.000564068
0.00056512
0.000566864
0.000569285
0.000572343
0.000575983
0.000580142
0.000584749
0.000589736
0.000595031
0.00060057
0.00060629
0.000612135
0.000618051
0.000623991
0.000629916
0.000635788
0.000641576
0.000647254
0.0006528
0.000658195
0.000663426
0.000668481
0.000673352
0.000678034
0.000682525
0.000686822
0.000690926
0.00069484
0.000698567
0.00070211
0.000705474
0.000708667
0.000711691
0.000714557
0.000717268
0.000719833
0.000722257
0.000724548
0.000726713
0.000728756
0.000730686
0.000732509
0.000734229
0.000735854
0.000737387
0.000738835
0.000740202
0.000741493
0.000742713
0.000743865
0.000744953
0.000745982
0.000746955
0.000747874
0.000748742
0.000749564
0.000750341
0.000751076
0.000751771
0.000752429
0.000753051
0.000753639
0.000754195
0.000754721
0.000755218
0.000755688
0.000756132
0.000756551
0.000756947
0.000757319
0.00075767
0.000758001
0.000758312
0.000758604
0.000758877
0.000759133
0.000759371
0.000759593
0.0007598
0.000759991
0.000760167
0.000760328
0.000760475
0.000760608
0.000760728
0.000760834
0.000760927
0.000761007
0.000761075
0.00076113
0.000761173
0.000761204
0.000761222
0.000761228
0.000761222
0.000761204
0.000761173
0.000761131
0.000761076
0.000761009
0.000760929
0.000760836
0.00076073
0.000760611
0.00076048
0.000760334
0.000760175
0.000760001
0.000759813
0.00075961
0.000759392
0.000759157
0.000758907
0.000758639
0.000758355
0.000758052
0.00075773
0.000757388
0.000757026
0.000756643
0.000756238
0.000755809
0.000755356
0.000754878
0.000754372
0.000753839
0.000753275
0.000752681
0.000752053
0.00075139
0.000750692
0.000749954
0.000749175
0.000748353
0.000747485
0.000746568
0.000745599
0.000744574
0.000743492
0.000742349
0.00074114
0.000739861
0.000738508
0.000737077
0.000735562
0.000733958
0.000732261
0.000730465
0.000728563
0.00072655
0.000724419
0.000722163
0.000719775
0.000717249
0.000714577
0.000711751
0.000708765
0.000705612
0.000702283
0.000698772
0.000695073
0.000691179
0.000687087
0.00068279
0.000678286
0.000673573
0.00066865
0.000663519
0.000658184
0.000652651
0.000646929
0.000641031
0.000634972
0.000628772
0.000622457
0.000616055
0.000609599
0.000603132
0.000596697
0.000590346
0.000584136
0.00057813
0.000572395
0.000567003
0.000562029
0.000557549
0.000553638
0.000550365
0.000547787
0.000545946
0.000544858
0.000544507
0.000544823
0.000545744
0.000547198
0.00108368
0.00108241
0.00108182
0.00108193
0.00108269
0.0010841
0.00108617
0.00108886
0.00109213
0.00109593
0.0011002
0.00110488
0.0011099
0.00111521
0.00112074
0.00112643
0.00113224
0.00113812
0.00114403
0.00114991
0.00115575
0.0011615
0.00116716
0.00117268
0.00117806
0.00118328
0.00118834
0.00119321
0.00119791
0.00120241
0.00120673
0.00121086
0.0012148
0.00121856
0.00122214
0.00122554
0.00122876
0.00123183
0.00123473
0.00123748
0.00124008
0.00124254
0.00124487
0.00124707
0.00124915
0.00125112
0.00125297
0.00125472
0.00125638
0.00125794
0.00125941
0.00126081
0.00126212
0.00126336
0.00126454
0.00126564
0.00126669
0.00126768
0.00126862
0.0012695
0.00127034
0.00127113
0.00127188
0.00127258
0.00127325
0.00127388
0.00127448
0.00127504
0.00127558
0.00127608
0.00127656
0.00127701
0.00127744
0.00127784
0.00127821
0.00127857
0.0012789
0.00127922
0.00127952
0.00127979
0.00128005
0.00128029
0.00128052
0.00128073
0.00128092
0.0012811
0.00128126
0.00128141
0.00128154
0.00128166
0.00128177
0.00128187
0.00128195
0.00128202
0.00128207
0.00128212
0.00128215
0.00128216
0.00128217
0.00128217
0.00128215
0.00128212
0.00128207
0.00128202
0.00128195
0.00128187
0.00128178
0.00128167
0.00128155
0.00128142
0.00128127
0.00128111
0.00128093
0.00128074
0.00128054
0.00128032
0.00128008
0.00127983
0.00127955
0.00127927
0.00127896
0.00127863
0.00127829
0.00127792
0.00127753
0.00127712
0.00127669
0.00127623
0.00127575
0.00127523
0.00127469
0.00127412
0.00127352
0.00127288
0.00127221
0.0012715
0.00127075
0.00126995
0.00126912
0.00126824
0.0012673
0.00126632
0.00126528
0.00126417
0.00126301
0.00126178
0.00126047
0.0012591
0.00125764
0.0012561
0.00125446
0.00125274
0.00125091
0.00124897
0.00124692
0.00124475
0.00124246
0.00124003
0.00123746
0.00123475
0.00123188
0.00122886
0.00122566
0.00122229
0.00121874
0.001215
0.00121107
0.00120695
0.00120262
0.00119809
0.00119336
0.00118842
0.00118328
0.00117794
0.00117241
0.0011667
0.00116081
0.00115478
0.00114861
0.00114233
0.00113597
0.00112956
0.00112313
0.00111674
0.00111043
0.00110424
0.00109825
0.0010925
0.00108707
0.00108202
0.00107742
0.00107334
0.00106984
0.00106697
0.00106479
0.00106331
0.00106255
0.00106249
0.00106319
0.00106469
0.00176794
0.00176688
0.00176662
0.00176717
0.00176838
0.00177024
0.00177272
0.00177578
0.00177936
0.00178343
0.00178792
0.00179277
0.00179794
0.00180336
0.00180898
0.00181474
0.00182061
0.00182652
0.00183246
0.00183837
0.00184423
0.00185001
0.00185568
0.00186123
0.00186663
0.00187188
0.00187696
0.00188186
0.00188659
0.00189113
0.00189548
0.00189965
0.00190363
0.00190742
0.00191104
0.00191448
0.00191775
0.00192085
0.00192379
0.00192658
0.00192922
0.00193172
0.00193409
0.00193632
0.00193843
0.00194043
0.00194231
0.00194409
0.00194577
0.00194736
0.00194886
0.00195028
0.00195161
0.00195288
0.00195407
0.00195519
0.00195626
0.00195726
0.00195821
0.00195911
0.00195996
0.00196076
0.00196152
0.00196223
0.00196291
0.00196355
0.00196416
0.00196473
0.00196527
0.00196578
0.00196626
0.00196672
0.00196715
0.00196755
0.00196794
0.00196829
0.00196863
0.00196895
0.00196925
0.00196953
0.00196979
0.00197004
0.00197026
0.00197047
0.00197067
0.00197085
0.00197101
0.00197116
0.0019713
0.00197142
0.00197153
0.00197162
0.00197171
0.00197178
0.00197183
0.00197188
0.00197191
0.00197193
0.00197193
0.00197193
0.00197191
0.00197188
0.00197183
0.00197178
0.00197171
0.00197163
0.00197153
0.00197142
0.0019713
0.00197117
0.00197102
0.00197086
0.00197068
0.00197049
0.00197028
0.00197006
0.00196982
0.00196957
0.00196929
0.001969
0.00196869
0.00196836
0.00196801
0.00196764
0.00196725
0.00196684
0.0019664
0.00196594
0.00196544
0.00196493
0.00196438
0.0019638
0.00196319
0.00196254
0.00196186
0.00196114
0.00196038
0.00195958
0.00195873
0.00195784
0.00195689
0.00195589
0.00195483
0.00195371
0.00195253
0.00195128
0.00194996
0.00194856
0.00194707
0.00194551
0.00194385
0.00194209
0.00194023
0.00193826
0.00193618
0.00193398
0.00193165
0.00192918
0.00192658
0.00192382
0.00192091
0.00191784
0.00191461
0.00191119
0.0019076
0.00190382
0.00189985
0.00189568
0.00189131
0.00188674
0.00188197
0.00187699
0.00187182
0.00186645
0.00186089
0.00185515
0.00184925
0.00184319
0.001837
0.0018307
0.00182431
0.00181787
0.00181141
0.00180498
0.00179861
0.00179235
0.00178626
0.0017804
0.00177481
0.00176957
0.00176473
0.00176037
0.00175653
0.00175327
0.00175064
0.00174868
0.00174744
0.00174693
0.00174729
0.00174862
0.0026146
0.00261399
0.00261423
0.00261532
0.00261709
0.00261949
0.00262248
0.002626
0.00263001
0.00263444
0.00263926
0.00264439
0.0026498
0.00265543
0.00266123
0.00266714
0.00267314
0.00267917
0.00268521
0.00269121
0.00269714
0.00270299
0.00270873
0.00271434
0.0027198
0.00272511
0.00273024
0.0027352
0.00273998
0.00274457
0.00274897
0.00275318
0.00275721
0.00276105
0.00276472
0.0027682
0.00277151
0.00277466
0.00277764
0.00278047
0.00278315
0.00278568
0.00278808
0.00279035
0.00279249
0.00279452
0.00279643
0.00279824
0.00279994
0.00280155
0.00280308
0.00280451
0.00280587
0.00280715
0.00280835
0.0028095
0.00281057
0.00281159
0.00281255
0.00281346
0.00281432
0.00281513
0.0028159
0.00281662
0.00281731
0.00281795
0.00281856
0.00281914
0.00281969
0.0028202
0.00282069
0.00282115
0.00282158
0.00282199
0.00282238
0.00282274
0.00282308
0.0028234
0.0028237
0.00282398
0.00282425
0.00282449
0.00282472
0.00282494
0.00282513
0.00282531
0.00282548
0.00282563
0.00282577
0.00282589
0.002826
0.00282609
0.00282618
0.00282625
0.0028263
0.00282635
0.00282638
0.0028264
0.0028264
0.0028264
0.00282638
0.00282635
0.0028263
0.00282625
0.00282618
0.0028261
0.002826
0.00282589
0.00282577
0.00282564
0.00282549
0.00282532
0.00282515
0.00282495
0.00282475
0.00282452
0.00282428
0.00282402
0.00282375
0.00282346
0.00282314
0.00282281
0.00282246
0.00282209
0.00282169
0.00282128
0.00282083
0.00282036
0.00281987
0.00281935
0.00281879
0.00281821
0.00281759
0.00281694
0.00281625
0.00281553
0.00281476
0.00281395
0.00281309
0.00281218
0.00281122
0.00281021
0.00280914
0.00280801
0.00280681
0.00280554
0.0028042
0.00280278
0.00280128
0.00279969
0.00279801
0.00279622
0.00279434
0.00279234
0.00279023
0.00278799
0.00278563
0.00278313
0.00278048
0.00277769
0.00277474
0.00277163
0.00276834
0.00276488
0.00276124
0.00275741
0.00275339
0.00274917
0.00274475
0.00274013
0.0027353
0.00273027
0.00272504
0.00271961
0.002714
0.0027082
0.00270223
0.0026961
0.00268984
0.00268346
0.00267699
0.00267046
0.00266389
0.00265734
0.00265082
0.0026444
0.00263812
0.00263203
0.00262618
0.00262064
0.00261546
0.00261069
0.0026064
0.00260264
0.00259947
0.00259694
0.0025951
0.00259401
0.00259385
0.00259475
0.00361862
0.0036187
0.00361963
0.0036214
0.00362385
0.0036269
0.0036305
0.00363459
0.00363911
0.00364401
0.00364925
0.00365476
0.0036605
0.00366642
0.00367248
0.00367863
0.00368483
0.00369104
0.00369724
0.00370339
0.00370945
0.00371542
0.00372127
0.00372698
0.00373253
0.00373792
0.00374314
0.00374817
0.00375302
0.00375767
0.00376214
0.00376641
0.0037705
0.0037744
0.00377811
0.00378165
0.00378501
0.0037882
0.00379122
0.00379409
0.00379681
0.00379938
0.00380181
0.00380411
0.00380628
0.00380833
0.00381027
0.0038121
0.00381383
0.00381546
0.003817
0.00381845
0.00381983
0.00382112
0.00382234
0.0038235
0.00382459
0.00382561
0.00382659
0.0038275
0.00382837
0.00382919
0.00382996
0.00383069
0.00383138
0.00383203
0.00383265
0.00383323
0.00383378
0.0038343
0.00383479
0.00383525
0.00383569
0.0038361
0.00383649
0.00383685
0.00383719
0.00383752
0.00383782
0.0038381
0.00383837
0.00383861
0.00383884
0.00383906
0.00383926
0.00383944
0.0038396
0.00383976
0.00383989
0.00384002
0.00384013
0.00384022
0.0038403
0.00384037
0.00384043
0.00384048
0.00384051
0.00384053
0.00384053
0.00384053
0.00384051
0.00384048
0.00384043
0.00384038
0.00384031
0.00384023
0.00384013
0.00384002
0.0038399
0.00383976
0.00383961
0.00383945
0.00383927
0.00383908
0.00383887
0.00383864
0.0038384
0.00383814
0.00383787
0.00383757
0.00383726
0.00383693
0.00383657
0.0038362
0.0038358
0.00383538
0.00383494
0.00383447
0.00383397
0.00383344
0.00383288
0.0038323
0.00383168
0.00383102
0.00383033
0.00382959
0.00382882
0.003828
0.00382713
0.00382622
0.00382525
0.00382423
0.00382315
0.00382201
0.00382079
0.00381951
0.00381816
0.00381672
0.0038152
0.00381359
0.00381189
0.00381008
0.00380817
0.00380615
0.00380401
0.00380174
0.00379934
0.00379681
0.00379413
0.00379129
0.0037883
0.00378515
0.00378182
0.00377831
0.00377461
0.00377073
0.00376665
0.00376237
0.00375789
0.0037532
0.0037483
0.0037432
0.00373789
0.00373238
0.00372668
0.00372079
0.00371472
0.00370849
0.00370211
0.0036956
0.00368899
0.0036823
0.00367555
0.0036688
0.00366207
0.0036554
0.00364883
0.00364242
0.00363622
0.00363027
0.00362463
0.00361936
0.00361451
0.00361015
0.00360632
0.0036031
0.00360054
0.00359872
0.00359784
0.00359806
0.00477415
0.00477517
0.00477695
0.00477957
0.00478281
0.00478662
0.00479094
0.00479569
0.00480082
0.00480629
0.00481203
0.004818
0.00482416
0.00483045
0.00483685
0.0048433
0.00484977
0.00485623
0.00486264
0.00486898
0.00487523
0.00488136
0.00488736
0.0048932
0.00489888
0.00490438
0.0049097
0.00491483
0.00491976
0.0049245
0.00492905
0.00493339
0.00493754
0.0049415
0.00494528
0.00494887
0.00495228
0.00495551
0.00495858
0.00496149
0.00496424
0.00496685
0.00496931
0.00497164
0.00497384
0.00497592
0.00497788
0.00497973
0.00498148
0.00498313
0.00498469
0.00498615
0.00498754
0.00498884
0.00499008
0.00499124
0.00499234
0.00499338
0.00499435
0.00499528
0.00499615
0.00499697
0.00499775
0.00499849
0.00499918
0.00499984
0.00500046
0.00500104
0.00500159
0.00500211
0.00500261
0.00500307
0.00500351
0.00500392
0.00500431
0.00500468
0.00500502
0.00500534
0.00500565
0.00500593
0.0050062
0.00500644
0.00500667
0.00500689
0.00500708
0.00500727
0.00500743
0.00500759
0.00500772
0.00500785
0.00500796
0.00500805
0.00500814
0.00500821
0.00500826
0.00500831
0.00500834
0.00500836
0.00500836
0.00500836
0.00500834
0.00500831
0.00500826
0.00500821
0.00500814
0.00500806
0.00500796
0.00500785
0.00500773
0.00500759
0.00500744
0.00500728
0.0050071
0.00500691
0.0050067
0.00500647
0.00500623
0.00500597
0.00500569
0.0050054
0.00500509
0.00500475
0.0050044
0.00500402
0.00500362
0.0050032
0.00500275
0.00500228
0.00500178
0.00500125
0.0050007
0.00500011
0.00499948
0.00499882
0.00499812
0.00499739
0.00499661
0.00499579
0.00499492
0.004994
0.00499302
0.00499199
0.0049909
0.00498975
0.00498853
0.00498724
0.00498587
0.00498442
0.00498288
0.00498126
0.00497953
0.00497771
0.00497578
0.00497373
0.00497156
0.00496927
0.00496684
0.00496427
0.00496156
0.00495869
0.00495565
0.00495245
0.00494907
0.00494551
0.00494176
0.00493782
0.00493368
0.00492933
0.00492477
0.00492001
0.00491503
0.00490983
0.00490443
0.00489882
0.004893
0.00488698
0.00488078
0.0048744
0.00486786
0.00486118
0.00485437
0.00484746
0.00484049
0.00483347
0.00482644
0.00481944
0.00481252
0.0048057
0.00479905
0.0047926
0.00478641
0.00478054
0.00477503
0.00476995
0.00476536
0.00476132
0.00475791
0.0047552
0.00475341
0.00475269
0.00607459
0.00607674
0.00607956
0.00608314
0.00608731
0.00609199
0.00609712
0.00610263
0.00610846
0.00611457
0.0061209
0.00612742
0.00613406
0.00614081
0.0061476
0.00615442
0.00616122
0.00616797
0.00617466
0.00618125
0.00618772
0.00619405
0.00620022
0.00620623
0.00621206
0.0062177
0.00622314
0.00622839
0.00623343
0.00623827
0.0062429
0.00624733
0.00625155
0.00625558
0.00625942
0.00626306
0.00626652
0.00626981
0.00627292
0.00627587
0.00627866
0.0062813
0.0062838
0.00628616
0.00628838
0.00629048
0.00629246
0.00629433
0.0062961
0.00629776
0.00629933
0.00630081
0.00630221
0.00630352
0.00630477
0.00630594
0.00630704
0.00630808
0.00630907
0.00630999
0.00631087
0.0063117
0.00631248
0.00631322
0.00631391
0.00631457
0.00631519
0.00631578
0.00631633
0.00631685
0.00631734
0.00631781
0.00631825
0.00631866
0.00631905
0.00631942
0.00631976
0.00632008
0.00632039
0.00632067
0.00632094
0.00632118
0.00632141
0.00632163
0.00632183
0.00632201
0.00632217
0.00632233
0.00632246
0.00632259
0.0063227
0.00632279
0.00632288
0.00632295
0.006323
0.00632305
0.00632308
0.0063231
0.0063231
0.0063231
0.00632308
0.00632305
0.006323
0.00632295
0.00632288
0.0063228
0.0063227
0.00632259
0.00632247
0.00632233
0.00632218
0.00632202
0.00632184
0.00632165
0.00632144
0.00632121
0.00632097
0.00632071
0.00632043
0.00632014
0.00631983
0.00631949
0.00631914
0.00631876
0.00631836
0.00631794
0.00631749
0.00631702
0.00631652
0.00631599
0.00631543
0.00631484
0.00631422
0.00631355
0.00631286
0.00631212
0.00631134
0.00631051
0.00630964
0.00630871
0.00630773
0.0063067
0.0063056
0.00630444
0.00630322
0.00630192
0.00630054
0.00629908
0.00629753
0.00629589
0.00629415
0.00629231
0.00629036
0.00628829
0.0062861
0.00628378
0.00628133
0.00627873
0.00627598
0.00627307
0.00626999
0.00626675
0.00626332
0.00625971
0.0062559
0.00625189
0.00624768
0.00624326
0.00623862
0.00623376
0.00622869
0.00622339
0.00621787
0.00621213
0.00620617
0.00620001
0.00619364
0.00618708
0.00618034
0.00617344
0.00616639
0.00615922
0.00615195
0.0061446
0.00613722
0.00612982
0.00612246
0.00611516
0.00610798
0.00610095
0.00609412
0.00608755
0.00608129
0.0060754
0.00606993
0.00606496
0.00606056
0.00605681
0.00605391
0.00605204
0.00751257
0.00751604
0.00752004
0.00752473
0.00752993
0.00753559
0.00754162
0.00754797
0.00755459
0.00756142
0.00756842
0.00757554
0.00758274
0.00758999
0.00759725
0.00760448
0.00761167
0.00761877
0.00762577
0.00763264
0.00763937
0.00764593
0.00765232
0.00765853
0.00766453
0.00767033
0.00767592
0.0076813
0.00768646
0.0076914
0.00769613
0.00770065
0.00770496
0.00770906
0.00771296
0.00771667
0.00772019
0.00772352
0.00772668
0.00772967
0.0077325
0.00773517
0.0077377
0.00774008
0.00774233
0.00774445
0.00774645
0.00774834
0.00775012
0.00775179
0.00775337
0.00775486
0.00775626
0.00775759
0.00775883
0.00776001
0.00776112
0.00776216
0.00776315
0.00776408
0.00776496
0.00776579
0.00776657
0.00776731
0.007768
0.00776866
0.00776928
0.00776987
0.00777042
0.00777094
0.00777143
0.0077719
0.00777234
0.00777275
0.00777314
0.0077735
0.00777385
0.00777417
0.00777447
0.00777475
0.00777502
0.00777527
0.0077755
0.00777571
0.00777591
0.00777609
0.00777625
0.00777641
0.00777654
0.00777667
0.00777678
0.00777687
0.00777695
0.00777702
0.00777708
0.00777713
0.00777716
0.00777718
0.00777718
0.00777718
0.00777716
0.00777713
0.00777708
0.00777703
0.00777696
0.00777687
0.00777678
0.00777667
0.00777655
0.00777641
0.00777626
0.0077761
0.00777592
0.00777573
0.00777552
0.00777529
0.00777505
0.00777479
0.00777452
0.00777422
0.00777391
0.00777358
0.00777322
0.00777285
0.00777245
0.00777203
0.00777158
0.00777111
0.00777061
0.00777008
0.00776952
0.00776893
0.00776831
0.00776765
0.00776695
0.00776621
0.00776543
0.0077646
0.00776373
0.0077628
0.00776182
0.00776078
0.00775969
0.00775852
0.00775729
0.00775598
0.0077546
0.00775313
0.00775157
0.00774992
0.00774817
0.00774632
0.00774435
0.00774227
0.00774006
0.00773771
0.00773523
0.0077326
0.00772982
0.00772688
0.00772376
0.00772047
0.00771699
0.00771332
0.00770945
0.00770538
0.00770109
0.00769659
0.00769186
0.00768691
0.00768172
0.0076763
0.00767065
0.00766477
0.00765865
0.00765231
0.00764575
0.00763898
0.00763201
0.00762485
0.00761752
0.00761004
0.00760242
0.0075947
0.0075869
0.00757905
0.00757118
0.00756334
0.00755555
0.00754786
0.00754032
0.00753297
0.00752586
0.00751906
0.00751261
0.0075066
0.00750108
0.00749614
0.00749198
0.00748875
0.00908008
0.00908501
0.00909033
0.00909624
0.00910258
0.0091093
0.00911632
0.0091236
0.00913107
0.00913868
0.00914641
0.0091542
0.00916201
0.00916982
0.0091776
0.0091853
0.00919291
0.0092004
0.00920775
0.00921495
0.00922196
0.00922879
0.00923542
0.00924184
0.00924804
0.00925402
0.00925977
0.00926529
0.00927059
0.00927565
0.00928049
0.0092851
0.0092895
0.00929368
0.00929765
0.00930142
0.009305
0.00930838
0.00931159
0.00931462
0.00931748
0.00932018
0.00932273
0.00932514
0.00932741
0.00932955
0.00933157
0.00933347
0.00933526
0.00933694
0.00933853
0.00934003
0.00934143
0.00934276
0.00934401
0.00934519
0.0093463
0.00934735
0.00934833
0.00934926
0.00935014
0.00935097
0.00935175
0.00935249
0.00935318
0.00935384
0.00935446
0.00935504
0.00935559
0.00935611
0.0093566
0.00935706
0.0093575
0.00935791
0.0093583
0.00935866
0.009359
0.00935933
0.00935963
0.00935991
0.00936017
0.00936042
0.00936065
0.00936086
0.00936106
0.00936124
0.0093614
0.00936155
0.00936169
0.00936181
0.00936192
0.00936202
0.0093621
0.00936217
0.00936222
0.00936227
0.0093623
0.00936232
0.00936232
0.00936232
0.0093623
0.00936227
0.00936222
0.00936217
0.0093621
0.00936202
0.00936192
0.00936182
0.00936169
0.00936156
0.00936141
0.00936125
0.00936107
0.00936088
0.00936067
0.00936045
0.0093602
0.00935995
0.00935967
0.00935938
0.00935907
0.00935874
0.00935838
0.00935801
0.00935761
0.00935719
0.00935675
0.00935628
0.00935578
0.00935525
0.0093547
0.00935411
0.00935348
0.00935283
0.00935213
0.00935139
0.00935061
0.00934979
0.00934891
0.00934799
0.00934701
0.00934597
0.00934487
0.00934371
0.00934247
0.00934116
0.00933977
0.0093383
0.00933674
0.00933508
0.00933332
0.00933146
0.00932948
0.00932738
0.00932515
0.00932279
0.00932028
0.00931763
0.00931481
0.00931183
0.00930868
0.00930534
0.00930181
0.00929809
0.00929416
0.00929001
0.00928565
0.00928106
0.00927623
0.00927117
0.00926587
0.00926032
0.00925452
0.00924848
0.00924219
0.00923565
0.00922888
0.00922187
0.00921463
0.00920719
0.00919954
0.00919171
0.00918371
0.00917556
0.0091673
0.00915894
0.00915051
0.00914206
0.0091336
0.00912519
0.00911686
0.00910866
0.00910063
0.00909283
0.00908532
0.00907815
0.00907141
0.00906515
0.00905958
0.00905484
0.0107685
0.010775
0.0107817
0.010789
0.0107965
0.0108044
0.0108125
0.0108207
0.0108291
0.0108376
0.0108461
0.0108546
0.0108631
0.0108715
0.0108798
0.010888
0.0108961
0.010904
0.0109118
0.0109193
0.0109266
0.0109338
0.0109407
0.0109473
0.0109537
0.0109599
0.0109658
0.0109715
0.0109769
0.0109821
0.0109871
0.0109918
0.0109963
0.0110005
0.0110046
0.0110084
0.0110121
0.0110155
0.0110187
0.0110218
0.0110247
0.0110274
0.01103
0.0110324
0.0110347
0.0110369
0.0110389
0.0110408
0.0110426
0.0110443
0.0110459
0.0110474
0.0110488
0.0110501
0.0110514
0.0110526
0.0110537
0.0110547
0.0110557
0.0110566
0.0110575
0.0110583
0.0110591
0.0110599
0.0110605
0.0110612
0.0110618
0.0110624
0.0110629
0.0110635
0.011064
0.0110644
0.0110648
0.0110653
0.0110656
0.011066
0.0110663
0.0110667
0.011067
0.0110672
0.0110675
0.0110677
0.011068
0.0110682
0.0110684
0.0110686
0.0110687
0.0110689
0.011069
0.0110691
0.0110692
0.0110693
0.0110694
0.0110695
0.0110695
0.0110696
0.0110696
0.0110696
0.0110696
0.0110696
0.0110696
0.0110696
0.0110695
0.0110695
0.0110694
0.0110693
0.0110692
0.0110691
0.011069
0.0110689
0.0110687
0.0110686
0.0110684
0.0110682
0.011068
0.0110678
0.0110675
0.0110673
0.011067
0.0110667
0.0110664
0.0110661
0.0110657
0.0110653
0.011065
0.0110645
0.0110641
0.0110636
0.0110631
0.0110626
0.0110621
0.0110615
0.0110608
0.0110602
0.0110595
0.0110588
0.011058
0.0110572
0.0110563
0.0110554
0.0110544
0.0110534
0.0110523
0.0110511
0.0110499
0.0110486
0.0110472
0.0110457
0.0110441
0.0110425
0.0110407
0.0110388
0.0110368
0.0110347
0.0110325
0.0110301
0.0110276
0.0110249
0.0110221
0.011019
0.0110159
0.0110125
0.0110089
0.0110051
0.0110011
0.0109969
0.0109925
0.0109878
0.0109829
0.0109777
0.0109722
0.0109666
0.0109606
0.0109544
0.0109479
0.0109412
0.0109341
0.0109269
0.0109194
0.0109116
0.0109036
0.0108954
0.010887
0.0108784
0.0108696
0.0108607
0.0108517
0.0108425
0.0108334
0.0108242
0.010815
0.0108059
0.0107969
0.010788
0.0107793
0.0107709
0.0107629
0.0107552
0.0107481
0.0107417
0.0125686
0.0125768
0.0125851
0.0125937
0.0126026
0.0126116
0.0126209
0.0126302
0.0126395
0.0126489
0.0126582
0.0126675
0.0126766
0.0126857
0.0126946
0.0127034
0.0127119
0.0127203
0.0127284
0.0127364
0.012744
0.0127514
0.0127586
0.0127655
0.0127722
0.0127785
0.0127847
0.0127905
0.0127961
0.0128014
0.0128065
0.0128113
0.0128159
0.0128202
0.0128243
0.0128282
0.0128319
0.0128354
0.0128387
0.0128418
0.0128447
0.0128475
0.0128501
0.0128525
0.0128549
0.012857
0.0128591
0.012861
0.0128628
0.0128645
0.0128661
0.0128676
0.012869
0.0128703
0.0128716
0.0128727
0.0128738
0.0128749
0.0128759
0.0128768
0.0128777
0.0128785
0.0128793
0.01288
0.0128807
0.0128813
0.0128819
0.0128825
0.012883
0.0128836
0.012884
0.0128845
0.0128849
0.0128853
0.0128857
0.0128861
0.0128864
0.0128867
0.012887
0.0128873
0.0128876
0.0128878
0.012888
0.0128882
0.0128884
0.0128886
0.0128888
0.0128889
0.0128891
0.0128892
0.0128893
0.0128894
0.0128895
0.0128895
0.0128896
0.0128896
0.0128897
0.0128897
0.0128897
0.0128897
0.0128897
0.0128896
0.0128896
0.0128895
0.0128895
0.0128894
0.0128893
0.0128892
0.0128891
0.0128889
0.0128888
0.0128886
0.0128884
0.0128882
0.012888
0.0128878
0.0128876
0.0128873
0.0128871
0.0128868
0.0128865
0.0128861
0.0128858
0.0128854
0.012885
0.0128846
0.0128842
0.0128837
0.0128832
0.0128827
0.0128822
0.0128816
0.012881
0.0128803
0.0128796
0.0128789
0.0128781
0.0128773
0.0128764
0.0128755
0.0128746
0.0128735
0.0128724
0.0128713
0.01287
0.0128687
0.0128673
0.0128659
0.0128643
0.0128626
0.0128609
0.012859
0.012857
0.0128549
0.0128526
0.0128502
0.0128477
0.012845
0.0128421
0.0128391
0.0128358
0.0128324
0.0128288
0.012825
0.0128209
0.0128166
0.0128121
0.0128073
0.0128023
0.012797
0.0127914
0.0127856
0.0127795
0.0127731
0.0127664
0.0127594
0.0127522
0.0127446
0.0127368
0.0127287
0.0127203
0.0127117
0.0127028
0.0126938
0.0126844
0.0126749
0.0126653
0.0126555
0.0126455
0.0126355
0.0126254
0.0126153
0.0126053
0.0125953
0.0125854
0.0125757
0.0125662
0.012557
0.0125483
0.0125401
0.0144709
0.0144809
0.0144907
0.0145008
0.014511
0.0145213
0.0145317
0.0145421
0.0145524
0.0145627
0.0145729
0.014583
0.0145929
0.0146026
0.0146121
0.0146214
0.0146305
0.0146394
0.0146479
0.0146562
0.0146643
0.014672
0.0146795
0.0146866
0.0146935
0.0147001
0.0147064
0.0147124
0.0147181
0.0147236
0.0147288
0.0147337
0.0147384
0.0147428
0.014747
0.014751
0.0147547
0.0147583
0.0147616
0.0147647
0.0147677
0.0147705
0.0147731
0.0147756
0.0147779
0.0147801
0.0147821
0.014784
0.0147858
0.0147875
0.0147891
0.0147906
0.014792
0.0147934
0.0147946
0.0147958
0.0147969
0.0147979
0.0147989
0.0147998