/*--------------------------------*- C++ -*----------------------------------*\
| =========                 |                                                 |
| \\      /  F ield         | OpenFOAM: The Open Source CFD Toolbox           |
|  \\    /   O peration     | Version:  2412                                  |
|   \\  /    A nd           | Website:  www.openfoam.com                      |
|    \\/     M anipulation  |                                                 |
\*---------------------------------------------------------------------------*/
FoamFile
{
    version     2.0;
    format      ascii;
    arch        "LSB;label=32;scalar=64";
    class       surfaceScalarField;
    location    "1000";
    object      phi;
}
// * * * * * * * * * * * * * * * * * * * * * * * * * * * * * * * * * * * * * //

dimensions      [0 3 -1 0 0 0 0];

oriented        oriented;

internalField   nonuniform List<scalar> 
79600
(
3.83355e-14
-4.28971e-14
-1.15363e-12
1.19196e-12
-3.62529e-12
2.47212e-12
-7.08177e-12
3.45694e-12
-1.11884e-11
4.10663e-12
-1.56471e-11
4.45901e-12
-2.02182e-11
4.57158e-12
-2.4718e-11
4.49964e-12
-2.90087e-11
4.29095e-12
-3.2993e-11
3.98393e-12
-3.66028e-11
3.61027e-12
-3.97975e-11
3.19431e-12
-4.25538e-11
2.75628e-12
-4.48652e-11
2.31141e-12
-4.67367e-11
1.87154e-12
-4.8183e-11
1.44604e-12
-4.92249e-11
1.0418e-12
-4.98887e-11
6.63667e-13
-5.02036e-11
3.14923e-13
-5.02013e-11
-2.4335e-15
-4.99139e-11
-2.87376e-13
-4.93744e-11
-5.39832e-13
-4.86144e-11
-7.60128e-13
-4.76649e-11
-9.49556e-13
-4.65553e-11
-1.10961e-12
-4.53132e-11
-1.24204e-12
-4.39643e-11
-1.34879e-12
-4.25321e-11
-1.43223e-12
-4.10379e-11
-1.49423e-12
-3.9501e-11
-1.53699e-12
-3.79383e-11
-1.56271e-12
-3.63648e-11
-1.5734e-12
-3.47936e-11
-1.57103e-12
-3.32359e-11
-1.55763e-12
-3.17011e-11
-1.53469e-12
-3.01971e-11
-1.50382e-12
-2.87306e-11
-1.46665e-12
-2.73062e-11
-1.42412e-12
-2.59286e-11
-1.37785e-12
-2.45999e-11
-1.32826e-12
-2.33233e-11
-1.27714e-12
-2.20989e-11
-1.22409e-12
-2.0928e-11
-1.17081e-12
-1.98107e-11
-1.11756e-12
-1.8746e-11
-1.06446e-12
-1.77337e-11
-1.0125e-12
-1.67725e-11
-9.61619e-13
-1.58606e-11
-9.11803e-13
-1.49964e-11
-8.63783e-13
-1.41786e-11
-8.17781e-13
-1.34051e-11
-7.73528e-13
-1.26739e-11
-7.31128e-13
-1.1983e-11
-6.90819e-13
-1.13306e-11
-6.52535e-13
-1.07145e-11
-6.16141e-13
-1.01329e-11
-5.81683e-13
-9.58376e-12
-5.49155e-13
-9.06526e-12
-5.18464e-13
-8.57561e-12
-4.89547e-13
-8.11311e-12
-4.62389e-13
-7.67609e-12
-4.36936e-13
-7.26296e-12
-4.13099e-13
-6.87223e-12
-3.90769e-13
-6.50245e-12
-3.69847e-13
-6.15224e-12
-3.50239e-13
-5.82032e-12
-3.31888e-13
-5.50548e-12
-3.14748e-13
-5.2066e-12
-2.98785e-13
-4.92261e-12
-2.83936e-13
-4.65252e-12
-2.70095e-13
-4.39535e-12
-2.57167e-13
-4.15018e-12
-2.45111e-13
-3.91619e-12
-2.33886e-13
-3.69261e-12
-2.23462e-13
-3.47873e-12
-2.13795e-13
-3.27387e-12
-2.04821e-13
-3.07737e-12
-1.96505e-13
-2.88859e-12
-1.88785e-13
-2.70701e-12
-1.81623e-13
-2.53204e-12
-1.74916e-13
-2.36318e-12
-1.68703e-13
-2.19995e-12
-1.63026e-13
-2.04195e-12
-1.57889e-13
-1.88882e-12
-1.5319e-13
-1.7401e-12
-1.48806e-13
-1.59538e-12
-1.44739e-13
-1.45424e-12
-1.41038e-13
-1.31636e-12
-1.3774e-13
-1.18151e-12
-1.34819e-13
-1.04939e-12
-1.32164e-13
-9.19656e-13
-1.29733e-13
-7.91993e-13
-1.27589e-13
-6.66093e-13
-1.25777e-13
-5.41689e-13
-1.24297e-13
-4.1857e-13
-1.23111e-13
-2.96488e-13
-1.22157e-13
-1.75144e-13
-1.21411e-13
-5.42856e-14
-1.20894e-13
6.62962e-14
-1.20604e-13
1.86866e-13
-1.20517e-13
3.07724e-13
-1.20678e-13
4.29116e-13
-1.21176e-13
5.51238e-13
-1.22024e-13
6.74296e-13
-1.23135e-13
7.98551e-13
-1.24409e-13
9.24324e-13
-1.25839e-13
1.05194e-12
-1.27525e-13
1.18163e-12
-1.29566e-13
1.3136e-12
-1.31964e-13
1.44815e-12
-1.34642e-13
1.58561e-12
-1.37545e-13
1.72637e-12
-1.4071e-13
1.87077e-12
-1.44232e-13
2.01911e-12
-1.48171e-13
2.17169e-12
-1.52508e-13
2.32892e-12
-1.57201e-13
2.49123e-12
-1.62262e-13
2.65911e-12
-1.67768e-13
2.83299e-12
-1.7379e-13
3.01331e-12
-1.80323e-13
3.20058e-12
-1.87319e-13
3.3954e-12
-1.94787e-13
3.59835e-12
-2.02822e-13
3.81004e-12
-2.11533e-13
4.03108e-12
-2.20958e-13
4.2622e-12
-2.31083e-13
4.50418e-12
-2.41926e-13
4.75785e-12
-2.53563e-13
5.02407e-12
-2.66088e-13
5.30372e-12
-2.79558e-13
5.59774e-12
-2.93997e-13
5.90718e-12
-3.09436e-13
6.23314e-12
-3.25944e-13
6.57684e-12
-3.43627e-13
6.93956e-12
-3.62615e-13
7.32261e-12
-3.83009e-13
7.72734e-12
-4.04823e-13
8.15526e-12
-4.28061e-13
8.60797e-12
-4.52806e-13
9.08708e-12
-4.7917e-13
9.59432e-12
-5.07223e-13
1.01316e-11
-5.37048e-13
1.07007e-11
-5.68828e-13
1.13038e-11
-6.02771e-13
1.19427e-11
-6.38918e-13
1.26194e-11
-6.77102e-13
1.33362e-11
-7.17181e-13
1.40952e-11
-7.59217e-13
1.48986e-11
-8.03371e-13
1.57487e-11
-8.4973e-13
1.66474e-11
-8.98284e-13
1.75967e-11
-9.48965e-13
1.85986e-11
-1.00164e-12
1.96547e-11
-1.05609e-12
2.07666e-11
-1.11201e-12
2.19354e-11
-1.16907e-12
2.31621e-11
-1.22688e-12
2.4447e-11
-1.28505e-12
2.57899e-11
-1.34306e-12
2.71902e-11
-1.40028e-12
2.86463e-11
-1.456e-12
3.01558e-11
-1.50935e-12
3.17153e-11
-1.55931e-12
3.33203e-11
-1.60477e-12
3.49651e-11
-1.64445e-12
3.66424e-11
-1.67697e-12
3.83434e-11
-1.70076e-12
4.00576e-11
-1.71404e-12
4.17725e-11
-1.71489e-12
4.34736e-11
-1.70127e-12
4.51446e-11
-1.67103e-12
4.67665e-11
-1.62204e-12
4.83183e-11
-1.55196e-12
4.97764e-11
-1.45836e-12
5.1115e-11
-1.33893e-12
5.23063e-11
-1.19141e-12
5.33199e-11
-1.01371e-12
5.41238e-11
-8.04e-13
5.46843e-11
-5.6066e-13
5.49668e-11
-2.82543e-13
5.49358e-11
3.08692e-14
5.45566e-11
3.79319e-13
5.37951e-11
7.61548e-13
5.26199e-11
1.17524e-12
5.10032e-11
1.61668e-12
4.89227e-11
2.0804e-12
4.63639e-11
2.55882e-12
4.33223e-11
3.04173e-12
3.98065e-11
3.51589e-12
3.58421e-11
3.96436e-12
3.14764e-11
4.36564e-12
2.67838e-11
4.6926e-12
2.18724e-11
4.91133e-12
1.68927e-11
4.97973e-12
1.20462e-11
4.84654e-12
7.5939e-12
4.45236e-12
3.85834e-12
3.73576e-12
1.20059e-12
2.65795e-12
-6.52637e-14
1.26616e-12
-6.51474e-14
-1.26286e-12
1.21947e-12
-5.44925e-12
5.37949e-12
-1.23667e-11
9.38943e-12
-2.14376e-11
1.25281e-11
-3.19998e-11
1.46687e-11
-4.34259e-11
1.58851e-11
-5.51765e-11
1.63222e-11
-6.68121e-11
1.6135e-11
-7.79877e-11
1.54667e-11
-8.84449e-11
1.44412e-11
-9.79974e-11
1.31631e-11
-1.06521e-10
1.17185e-11
-1.13942e-10
1.01777e-11
-1.20228e-10
8.59751e-12
-1.25379e-10
7.02262e-12
-1.2942e-10
5.48784e-12
-1.32398e-10
4.02e-12
-1.34373e-10
2.63869e-12
-1.35416e-10
1.35795e-12
-1.35605e-10
1.86694e-13
-1.35022e-10
-8.7042e-13
-1.3375e-10
-1.81163e-12
-1.31872e-10
-2.6379e-12
-1.29469e-10
-3.35245e-12
-1.26618e-10
-3.95978e-12
-1.23394e-10
-4.46615e-12
-1.19865e-10
-4.8782e-12
-1.16094e-10
-5.20319e-12
-1.12139e-10
-5.4488e-12
-1.08053e-10
-5.62293e-12
-1.03883e-10
-5.733e-12
-9.96701e-11
-5.78654e-12
-9.54507e-11
-5.79084e-12
-9.1256e-11
-5.75247e-12
-8.71128e-11
-5.67793e-12
-8.30439e-11
-5.57293e-12
-7.90677e-11
-5.44317e-12
-7.51991e-11
-5.29273e-12
-7.14501e-11
-5.12694e-12
-6.78297e-11
-4.9489e-12
-6.43441e-11
-4.76247e-12
-6.09979e-11
-4.57036e-12
-5.77935e-11
-4.37538e-12
-5.47314e-11
-4.17956e-12
-5.18111e-11
-3.98467e-12
-4.90309e-11
-3.7926e-12
-4.63882e-11
-3.60439e-12
-4.38795e-11
-3.42089e-12
-4.15006e-11
-3.24304e-12
-3.9247e-11
-3.07149e-12
-3.71139e-11
-2.90661e-12
-3.50963e-11
-2.74879e-12
-3.3189e-11
-2.59822e-12
-3.13866e-11
-2.45489e-12
-2.96838e-11
-2.31881e-12
-2.80756e-11
-2.18996e-12
-2.65566e-11
-2.06817e-12
-2.51219e-11
-1.95321e-12
-2.37666e-11
-1.84492e-12
-2.24861e-11
-1.74305e-12
-2.12759e-11
-1.64733e-12
-2.01314e-11
-1.55753e-12
-1.90488e-11
-1.47337e-12
-1.80239e-11
-1.39459e-12
-1.70532e-11
-1.32089e-12
-1.61332e-11
-1.25198e-12
-1.52605e-11
-1.18757e-12
-1.44319e-11
-1.12744e-12
-1.36445e-11
-1.07136e-12
-1.28955e-11
-1.01908e-12
-1.21824e-11
-9.7037e-13
-1.15026e-11
-9.24969e-13
-1.08538e-11
-8.82686e-13
-1.02339e-11
-8.43346e-13
-9.64081e-12
-8.06799e-13
-9.07276e-12
-7.72847e-13
-8.52787e-12
-7.41346e-13
-8.00442e-12
-7.12141e-13
-7.50086e-12
-6.8512e-13
-7.01578e-12
-6.60092e-13
-6.54779e-12
-6.36896e-13
-6.09549e-12
-6.15443e-13
-5.65757e-12
-5.9571e-13
-5.23294e-12
-5.77661e-13
-4.82057e-12
-5.61162e-13
-4.41944e-12
-5.46047e-13
-4.02846e-12
-5.32197e-13
-3.64657e-12
-5.19606e-13
-3.27288e-12
-5.08325e-13
-2.90665e-12
-4.98309e-13
-2.54709e-12
-4.89432e-13
-2.19337e-12
-4.81584e-13
-1.84464e-12
-4.74726e-13
-1.50009e-12
-4.68889e-13
-1.15901e-12
-4.64098e-13
-8.20715e-13
-4.60312e-13
-4.84482e-13
-4.57492e-13
-1.49612e-13
-4.55664e-13
1.84512e-13
-4.54823e-13
5.18518e-13
-4.54875e-13
8.53159e-13
-4.55743e-13
1.18924e-12
-4.57466e-13
1.5275e-12
-4.60163e-13
1.86856e-12
-4.63925e-13
2.21301e-12
-4.68725e-13
2.56153e-12
-4.74466e-13
2.91496e-12
-4.81118e-13
3.27412e-12
-4.88781e-13
3.6398e-12
-4.97583e-13
4.01278e-12
-5.0757e-13
4.39387e-12
-5.18706e-13
4.78397e-12
-5.30964e-13
5.18406e-12
-5.44411e-13
5.59511e-12
-5.59193e-13
6.0181e-12
-5.75432e-13
6.45404e-12
-5.93164e-13
6.90408e-12
-6.12398e-13
7.36945e-12
-6.33199e-13
7.85148e-12
-6.55726e-13
8.35153e-12
-6.80141e-13
8.87096e-12
-7.06544e-13
9.41126e-12
-7.34997e-13
9.97404e-12
-7.65613e-13
1.05611e-11
-7.98573e-13
1.11741e-11
-8.34064e-13
1.18153e-11
-8.72238e-13
1.24865e-11
-9.13229e-13
1.319e-11
-9.57202e-13
1.39283e-11
-1.00438e-12
1.47039e-11
-1.05501e-12
1.55194e-11
-1.10936e-12
1.63776e-11
-1.16766e-12
1.72816e-11
-1.23011e-12
1.82346e-11
-1.29692e-12
1.92402e-11
-1.36836e-12
2.0302e-11
-1.44478e-12
2.14239e-11
-1.5265e-12
2.26098e-11
-1.61382e-12
2.38642e-11
-1.70704e-12
2.51915e-11
-1.80648e-12
2.65963e-11
-1.91241e-12
2.80836e-11
-2.02498e-12
2.96586e-11
-2.14438e-12
3.13267e-11
-2.27097e-12
3.30936e-11
-2.40519e-12
3.49645e-11
-2.54733e-12
3.69452e-11
-2.69741e-12
3.90413e-11
-2.85536e-12
4.12586e-11
-3.02111e-12
4.36028e-11
-3.19457e-12
4.60794e-11
-3.37553e-12
4.86936e-11
-3.56365e-12
5.14504e-11
-3.75845e-12
5.4354e-11
-3.95935e-12
5.74079e-11
-4.16545e-12
6.0615e-11
-4.3756e-12
6.39769e-11
-4.58832e-12
6.74941e-11
-4.80192e-12
7.11655e-11
-5.01432e-12
7.49883e-11
-5.22303e-12
7.89573e-11
-5.42523e-12
8.30652e-11
-5.61763e-12
8.73019e-11
-5.79642e-12
9.16539e-11
-5.95733e-12
9.61044e-11
-6.09553e-12
1.00633e-10
-6.20568e-12
1.05214e-10
-6.28197e-12
1.09818e-10
-6.31805e-12
1.1441e-10
-6.30699e-12
1.1895e-10
-6.24136e-12
1.23393e-10
-6.11331e-12
1.27685e-10
-5.91475e-12
1.31771e-10
-5.63746e-12
1.35586e-10
-5.27304e-12
1.39061e-10
-4.81322e-12
1.42119e-10
-4.25011e-12
1.44682e-10
-3.57647e-12
1.46665e-10
-2.78611e-12
1.47979e-10
-1.87416e-12
1.48534e-10
-8.37522e-13
1.4824e-10
3.24646e-13
1.47009e-10
1.61027e-12
1.44757e-10
3.01352e-12
1.41408e-10
4.52418e-12
1.36898e-10
6.12668e-12
1.3118e-10
7.79913e-12
1.24226e-10
9.51209e-12
1.16041e-10
1.12269e-11
1.06663e-10
1.28942e-11
9.61754e-11
1.44521e-11
8.47173e-11
1.58239e-11
7.24945e-11
1.69155e-11
5.9792e-11
1.76138e-11
4.69872e-11
1.77843e-11
3.45607e-11
1.72729e-11
2.30991e-11
1.59136e-11
1.32812e-11
1.35532e-11
5.82102e-12
1.01177e-11
1.33166e-12
5.75515e-12
1.26667e-12
-2.6642e-12
3.88427e-12
-9.82081e-12
1.25354e-11
-2.07041e-11
2.02729e-11
-3.44672e-11
2.62918e-11
-5.02418e-11
3.04431e-11
-6.72094e-11
3.28527e-11
-8.46485e-11
3.37615e-11
-1.01953e-10
3.34395e-11
-1.18634e-10
3.21472e-11
-1.34311e-10
3.01182e-11
-1.48704e-10
2.75562e-11
-1.61618e-10
2.46322e-11
-1.72929e-10
2.14895e-11
-1.82577e-10
1.82451e-11
-1.90548e-10
1.49934e-11
-1.9687e-10
1.18093e-11
-2.016e-10
8.75016e-12
-2.04821e-10
5.85948e-12
-2.06631e-10
3.16849e-12
-2.07143e-10
6.98089e-13
-2.06474e-10
-1.53957e-12
-2.04747e-10
-3.53918e-12
-2.02083e-10
-5.30162e-12
-1.98603e-10
-6.83197e-12
-1.94425e-10
-8.13873e-12
-1.89657e-10
-9.23365e-12
-1.84405e-10
-1.01301e-11
-1.78766e-10
-1.08429e-11
-1.72827e-10
-1.13877e-11
-1.6667e-10
-1.17801e-11
-1.60367e-10
-1.20362e-11
-1.53982e-10
-1.21714e-11
-1.47572e-10
-1.22007e-11
-1.41186e-10
-1.21382e-11
-1.34867e-10
-1.19972e-11
-1.28649e-10
-1.17905e-11
-1.22563e-10
-1.15286e-11
-1.16634e-10
-1.12228e-11
-1.10879e-10
-1.08816e-11
-1.05315e-10
-1.05136e-11
-9.9951e-11
-1.0126e-11
-9.4796e-11
-9.72564e-12
-8.98541e-11
-9.31747e-12
-8.51271e-11
-8.90646e-12
-8.0615e-11
-8.49706e-12
-7.63157e-11
-8.09215e-12
-7.22253e-11
-7.69448e-12
-6.83394e-11
-7.30669e-12
-6.46521e-11
-6.93042e-12
-6.11567e-11
-6.56682e-12
-5.78463e-11
-6.21706e-12
-5.47134e-11
-5.88191e-12
-5.175e-11
-5.56171e-12
-4.89483e-11
-5.25664e-12
-4.63004e-11
-4.96682e-12
-4.37983e-11
-4.69212e-12
-4.14341e-11
-4.43226e-12
-3.92003e-11
-4.18691e-12
-3.70894e-11
-3.95569e-12
-3.50944e-11
-3.73811e-12
-3.32083e-11
-3.53359e-12
-3.14244e-11
-3.34156e-12
-2.97363e-11
-3.16147e-12
-2.81381e-11
-2.99277e-12
-2.66241e-11
-2.83489e-12
-2.51887e-11
-2.68727e-12
-2.38269e-11
-2.54934e-12
-2.25339e-11
-2.42052e-12
-2.1305e-11
-2.30028e-12
-2.0136e-11
-2.18814e-12
-1.90226e-11
-2.08362e-12
-1.79613e-11
-1.98625e-12
-1.69483e-11
-1.8956e-12
-1.59805e-11
-1.81126e-12
-1.50545e-11
-1.73284e-12
-1.41674e-11
-1.66e-12
-1.33165e-11
-1.59232e-12
-1.24991e-11
-1.52953e-12
-1.17127e-11
-1.47135e-12
-1.09551e-11
-1.41757e-12
-1.02241e-11
-1.36789e-12
-9.51779e-12
-1.32199e-12
-8.83402e-12
-1.27965e-12
-8.17097e-12
-1.24073e-12
-7.52693e-12
-1.20512e-12
-6.90034e-12
-1.17262e-12
-6.28965e-12
-1.14301e-12
-5.69334e-12
-1.11608e-12
-5.10991e-12
-1.09177e-12
-4.53804e-12
-1.07007e-12
-3.97648e-12
-1.0509e-12
-3.42399e-12
-1.0341e-12
-2.87934e-12
-1.01952e-12
-2.34131e-12
-1.0071e-12
-1.80872e-12
-9.96824e-13
-1.28048e-12
-9.88642e-13
-7.5551e-13
-9.82499e-13
-2.32676e-13
-9.78395e-13
2.89125e-13
-9.76379e-13
8.10887e-13
-9.76453e-13
1.33362e-12
-9.78524e-13
1.85843e-12
-9.82508e-13
2.38647e-12
-9.88418e-13
2.9189e-12
-9.96374e-13
3.4568e-12
-1.00649e-12
4.0012e-12
-1.01878e-12
4.55323e-12
-1.03322e-12
5.11409e-12
-1.04983e-12
5.68511e-12
-1.06871e-12
6.2676e-12
-1.09e-12
6.86285e-12
-1.11381e-12
7.47219e-12
-1.14021e-12
8.09705e-12
-1.16928e-12
8.73897e-12
-1.20115e-12
9.39957e-12
-1.23601e-12
1.00805e-11
-1.27405e-12
1.07835e-11
-1.31543e-12
1.15105e-11
-1.36027e-12
1.22633e-11
-1.40876e-12
1.30443e-11
-1.46115e-12
1.38556e-11
-1.51774e-12
1.46995e-11
-1.57881e-12
1.55786e-11
-1.64461e-12
1.64954e-11
-1.71542e-12
1.74529e-11
-1.79157e-12
1.84541e-11
-1.87344e-12
1.95024e-11
-1.96142e-12
2.0601e-11
-2.05588e-12
2.17538e-11
-2.15721e-12
2.29646e-11
-2.26586e-12
2.42377e-11
-2.38236e-12
2.55773e-11
-2.50724e-12
2.69884e-11
-2.64107e-12
2.84757e-11
-2.78437e-12
3.00448e-11
-2.93765e-12
3.17012e-11
-3.10146e-12
3.3451e-11
-3.27644e-12
3.53003e-11
-3.46324e-12
3.72559e-11
-3.66251e-12
3.93246e-11
-3.87493e-12
4.15137e-11
-4.10118e-12
4.38308e-11
-4.34189e-12
4.62836e-11
-4.59745e-12
4.88801e-11
-4.86821e-12
5.1629e-11
-5.15463e-12
5.45388e-11
-5.45723e-12
5.7618e-11
-5.77638e-12
6.08752e-11
-6.11216e-12
6.4319e-11
-6.46447e-12
6.79578e-11
-6.83305e-12
7.17997e-11
-7.21736e-12
7.58523e-11
-7.61649e-12
8.01228e-11
-8.02927e-12
8.46172e-11
-8.45415e-12
8.93406e-11
-8.88917e-12
9.42967e-11
-9.33182e-12
9.94872e-11
-9.77898e-12
1.04912e-10
-1.02269e-11
1.10569e-10
-1.06711e-11
1.16452e-10
-1.11062e-11
1.22554e-10
-1.15262e-11
1.2886e-10
-1.19238e-11
1.35355e-10
-1.22911e-11
1.42017e-10
-1.26189e-11
1.48818e-10
-1.28969e-11
1.55727e-10
-1.31138e-11
1.62701e-10
-1.3257e-11
1.69696e-10
-1.33132e-11
1.76657e-10
-1.32677e-11
1.8352e-10
-1.31051e-11
1.90216e-10
-1.2809e-11
1.96663e-10
-1.23626e-11
2.02774e-10
-1.17487e-11
2.08451e-10
-1.09503e-11
2.13588e-10
-9.95048e-12
2.18071e-10
-8.73356e-12
2.2178e-10
-7.28515e-12
2.24587e-10
-5.59314e-12
2.26361e-10
-3.64856e-12
2.2697e-10
-1.44642e-12
2.26281e-10
1.01322e-12
2.24167e-10
3.72401e-12
2.20509e-10
6.6718e-12
2.152e-10
9.83297e-12
2.08154e-10
1.31726e-11
1.99311e-10
1.66424e-11
1.88644e-10
2.01786e-11
1.76172e-10
2.36988e-11
1.61967e-10
2.70995e-11
1.46167e-10
3.02526e-11
1.28988e-10
3.30021e-11
1.10742e-10
3.51613e-11
9.18462e-11
3.651e-11
7.28355e-11
3.67951e-11
5.4372e-11
3.57366e-11
3.72398e-11
3.3046e-11
2.23242e-11
2.8469e-11
1.05605e-11
2.18813e-11
2.85201e-12
1.34634e-11
4.11881e-12
-3.82375e-12
7.70846e-12
-1.35185e-11
2.2231e-11
-2.77607e-11
3.45152e-11
-4.5405e-11
4.39363e-11
-6.53998e-11
5.0438e-11
-8.67905e-11
5.42435e-11
-1.08737e-10
5.57087e-11
-1.30527e-10
5.52292e-11
-1.51574e-10
5.31934e-11
-1.71413e-10
4.99581e-11
-1.89696e-10
4.58386e-11
-2.06171e-10
4.11068e-11
-2.20673e-10
3.59927e-11
-2.33115e-10
3.06871e-11
-2.43468e-10
2.53463e-11
-2.51754e-10
2.00953e-11
-2.58036e-10
1.50322e-11
-2.62408e-10
1.02316e-11
-2.64987e-10
5.74765e-12
-2.65907e-10
1.61796e-12
-2.65312e-10
-2.13439e-12
-2.63353e-10
-5.49864e-12
-2.60181e-10
-8.47334e-12
-2.55947e-10
-1.10653e-11
-2.50798e-10
-1.32877e-11
-2.44874e-10
-1.51579e-11
-2.38307e-10
-1.66973e-11
-2.3122e-10
-1.79296e-11
-2.23728e-10
-1.88799e-11
-2.15934e-10
-1.95741e-11
-2.07932e-10
-2.00381e-11
-1.99806e-10
-2.02978e-11
-1.91629e-10
-2.03773e-11
-1.83467e-10
-2.0301e-11
-1.75374e-10
-2.00904e-11
-1.67398e-10
-1.97665e-11
-1.59578e-10
-1.93482e-11
-1.51948e-10
-1.88531e-11
-1.44533e-10
-1.82965e-11
-1.37354e-10
-1.76929e-11
-1.30425e-10
-1.70544e-11
-1.23759e-10
-1.63921e-11
-1.17361e-10
-1.57153e-11
-1.11236e-10
-1.50321e-11
-1.05383e-10
-1.43496e-11
-9.98015e-11
-1.36737e-11
-9.44872e-11
-1.30091e-11
-8.94344e-11
-1.23597e-11
-8.46361e-11
-1.17286e-11
-8.00845e-11
-1.11183e-11
-7.5771e-11
-1.05306e-11
-7.16862e-11
-9.96682e-12
-6.78201e-11
-9.42768e-12
-6.41631e-11
-8.9137e-12
-6.0705e-11
-8.42503e-12
-5.74357e-11
-7.96147e-12
-5.43453e-11
-7.52266e-12
-5.14241e-11
-7.1081e-12
-4.86626e-11
-6.71715e-12
-4.60516e-11
-6.34905e-12
-4.35822e-11
-6.00292e-12
-4.12459e-11
-5.67784e-12
-3.90346e-11
-5.37287e-12
-3.69403e-11
-5.08704e-12
-3.49558e-11
-4.81941e-12
-3.3074e-11
-4.56906e-12
-3.12882e-11
-4.33508e-12
-2.95923e-11
-4.11652e-12
-2.79802e-11
-3.91248e-12
-2.64463e-11
-3.72211e-12
-2.49853e-11
-3.5446e-12
-2.35923e-11
-3.37922e-12
-2.22626e-11
-3.22522e-12
-2.09919e-11
-3.08192e-12
-1.97761e-11
-2.94867e-12
-1.86113e-11
-2.82486e-12
-1.74939e-11
-2.70989e-12
-1.64204e-11
-2.60317e-12
-1.53876e-11
-2.50421e-12
-1.43924e-11
-2.41265e-12
-1.34322e-11
-2.32808e-12
-1.25042e-11
-2.25005e-12
-1.16059e-11
-2.17812e-12
-1.07349e-11
-2.11195e-12
-9.88878e-12
-2.05126e-12
-9.0655e-12
-1.99585e-12
-8.26302e-12
-1.94545e-12
-7.47944e-12
-1.89976e-12
-6.7129e-12
-1.85852e-12
-5.96157e-12
-1.82157e-12
-5.2237e-12
-1.7888e-12
-4.49766e-12
-1.76007e-12
-3.78192e-12
-1.73523e-12
-3.07489e-12
-1.71413e-12
-2.37501e-12
-1.69669e-12
-1.68082e-12
-1.68284e-12
-9.90963e-13
-1.6725e-12
-3.03996e-13
-1.66558e-12
3.8158e-13
-1.66204e-12
1.06721e-12
-1.66196e-12
1.75425e-12
-1.66535e-12
2.44404e-12
-1.67218e-12
3.13797e-12
-1.68241e-12
3.83755e-12
-1.69605e-12
4.5443e-12
-1.71322e-12
5.2597e-12
-1.73405e-12
5.98519e-12
-1.75863e-12
6.7223e-12
-1.787e-12
7.47267e-12
-1.81925e-12
8.23807e-12
-1.8555e-12
9.02024e-12
-1.89596e-12
9.82097e-12
-1.94086e-12
1.06421e-11
-1.99039e-12
1.14856e-11
-2.04473e-12
1.23536e-11
-2.10409e-12
1.32483e-11
-2.16876e-12
1.4172e-11
-2.2391e-12
1.51272e-11
-2.31542e-12
1.61163e-11
-2.39801e-12
1.71423e-11
-2.48723e-12
1.8208e-11
-2.58351e-12
1.93166e-11
-2.68737e-12
2.04712e-11
-2.79927e-12
2.16753e-11
-2.91969e-12
2.29328e-11
-3.04916e-12
2.42476e-11
-3.18829e-12
2.56239e-11
-3.33774e-12
2.70663e-11
-3.49821e-12
2.85795e-11
-3.6704e-12
3.01687e-11
-3.85506e-12
3.18392e-11
-4.05295e-12
3.35968e-11
-4.26494e-12
3.54477e-11
-4.49197e-12
3.73985e-11
-4.73501e-12
3.94559e-11
-4.995e-12
4.16273e-11
-5.27287e-12
4.39205e-11
-5.56964e-12
4.63435e-11
-5.88638e-12
4.89048e-11
-6.22411e-12
5.16133e-11
-6.58378e-12
5.44786e-11
-6.96647e-12
5.75103e-11
-7.37329e-12
6.07185e-11
-7.8052e-12
6.41134e-11
-8.26292e-12
6.77056e-11
-8.74702e-12
7.1506e-11
-9.25803e-12
7.55257e-11
-9.79638e-12
7.97755e-11
-1.03622e-11
8.42661e-11
-1.09553e-11
8.90081e-11
-1.15751e-11
9.40117e-11
-1.22207e-11
9.92861e-11
-1.28907e-11
1.0484e-10
-1.35828e-11
1.1068e-10
-1.42944e-11
1.16813e-10
-1.50219e-11
1.23242e-10
-1.5761e-11
1.29969e-10
-1.65062e-11
1.36993e-10
-1.7251e-11
1.4431e-10
-1.79877e-11
1.51911e-10
-1.87073e-11
1.59784e-10
-1.93993e-11
1.67911e-10
-2.00515e-11
1.7627e-10
-2.06502e-11
1.84831e-10
-2.118e-11
1.93558e-10
-2.16236e-11
2.02406e-10
-2.1962e-11
2.11324e-10
-2.21743e-11
2.20248e-10
-2.22377e-11
2.29109e-10
-2.2128e-11
2.37823e-10
-2.18195e-11
2.463e-10
-2.12854e-11
2.54435e-10
-2.04977e-11
2.62114e-10
-1.94284e-11
2.69214e-10
-1.80495e-11
2.75597e-10
-1.63339e-11
2.8112e-10
-1.42564e-11
2.85629e-10
-1.17945e-11
2.88966e-10
-8.92952e-12
2.90965e-10
-5.64821e-12
2.91463e-10
-1.94426e-12
2.90297e-10
2.17977e-12
2.8731e-10
6.71067e-12
2.8236e-10
1.1622e-11
2.75321e-10
1.68717e-11
2.66095e-10
2.23988e-11
2.54617e-10
2.81206e-11
2.40866e-10
3.39287e-11
2.2488e-10
3.96855e-11
2.06759e-10
4.52198e-11
1.86689e-10
5.03228e-11
1.64947e-10
5.47439e-11
1.41921e-10
5.81872e-11
1.1812e-10
6.0311e-11
9.41849e-11
6.07302e-11
7.08938e-11
5.90276e-11
4.91592e-11
5.47806e-11
3.00139e-11
4.76143e-11
1.45912e-11
3.73041e-11
4.11665e-12
2.39378e-11
8.2356e-12
-4.68775e-12
1.2396e-11
-1.63717e-11
3.39151e-11
-3.32908e-11
5.1434e-11
-5.40258e-11
6.46717e-11
-7.73565e-11
7.37683e-11
-1.02215e-10
7.91022e-11
-1.27678e-10
8.11709e-11
-1.52958e-10
8.05098e-11
-1.77407e-10
7.76426e-11
-2.00505e-10
7.30559e-11
-2.21852e-10
6.71852e-11
-2.41156e-10
6.04112e-11
-2.58223e-10
5.30594e-11
-2.72939e-10
4.54032e-11
-2.85261e-10
3.76688e-11
-2.95205e-10
3.00392e-11
-3.02833e-10
2.26597e-11
-3.08244e-10
1.56418e-11
-3.11564e-10
9.06818e-12
-3.12943e-10
2.9967e-12
-3.12542e-10
-2.53569e-12
-3.1053e-10
-7.51007e-12
-3.07081e-10
-1.19218e-11
-3.02368e-10
-1.57784e-11
-2.96559e-10
-1.90965e-11
-2.89817e-10
-2.19001e-11
-2.82296e-10
-2.42189e-11
-2.74139e-10
-2.60863e-11
-2.65481e-10
-2.75379e-11
-2.56445e-10
-2.8611e-11
-2.4714e-10
-2.93432e-11
-2.37666e-10
-2.9771e-11
-2.28112e-10
-2.99313e-11
-2.18555e-10
-2.98579e-11
-2.09062e-10
-2.95835e-11
-1.9969e-10
-2.91386e-11
-1.90487e-10
-2.85512e-11
-1.81493e-10
-2.78467e-11
-1.72742e-10
-2.70487e-11
-1.64257e-10
-2.61777e-11
-1.56059e-10
-2.52526e-11
-1.48161e-10
-2.42894e-11
-1.40574e-10
-2.33024e-11
-1.33302e-10
-2.23042e-11
-1.26347e-10
-2.13045e-11
-1.19708e-10
-2.03125e-11
-1.13381e-10
-1.93358e-11
-1.07361e-10
-1.83802e-11
-1.01639e-10
-1.74501e-11
-9.62079e-11
-1.65497e-11
-9.10568e-11
-1.56817e-11
-8.61754e-11
-1.48482e-11
-8.15526e-11
-1.40504e-11
-7.7177e-11
-1.32893e-11
-7.30369e-11
-1.2565e-11
-6.91208e-11
-1.18775e-11
-6.5417e-11
-1.12264e-11
-6.19143e-11
-1.06108e-11
-5.86015e-11
-1.00299e-11
-5.54679e-11
-9.48264e-12
-5.2503e-11
-8.96776e-12
-4.96968e-11
-8.48399e-12
-4.70396e-11
-8.02997e-12
-4.45223e-11
-7.60431e-12
-4.21361e-11
-7.20559e-12
-3.98727e-11
-6.83247e-12
-3.77242e-11
-6.48357e-12
-3.56831e-11
-6.15757e-12
-3.37424e-11
-5.85317e-12
-3.18954e-11
-5.5691e-12
-3.01359e-11
-5.30416e-12
-2.84578e-11
-5.05723e-12
-2.68558e-11
-4.82726e-12
-2.53246e-11
-4.6132e-12
-2.38592e-11
-4.41409e-12
-2.2455e-11
-4.22903e-12
-2.11077e-11
-4.05717e-12
-1.98132e-11
-3.89769e-12
-1.85677e-11
-3.74985e-12
-1.73675e-11
-3.61293e-12
-1.62093e-11
-3.48637e-12
-1.50897e-11
-3.36959e-12
-1.40058e-11
-3.26201e-12
-1.29548e-11
-3.1631e-12
-1.19339e-11
-3.07234e-12
-1.09405e-11
-2.98936e-12
-9.97205e-12
-2.91383e-12
-9.02629e-12
-2.84542e-12
-8.10106e-12
-2.78379e-12
-7.19419e-12
-2.7286e-12
-6.30356e-12
-2.67956e-12
-5.42717e-12
-2.63651e-12
-4.56314e-12
-2.59927e-12
-3.70962e-12
-2.56765e-12
-2.86474e-12
-2.54149e-12
-2.0267e-12
-2.52071e-12
-1.19379e-12
-2.50525e-12
-3.64368e-13
-2.495e-12
4.63283e-13
-2.48982e-12
1.29094e-12
-2.48968e-12
2.12035e-12
-2.49465e-12
2.95317e-12
-2.50479e-12
3.79103e-12
-2.52013e-12
4.63564e-12
-2.54065e-12
5.48882e-12
-2.56642e-12
6.35241e-12
-2.59758e-12
7.22821e-12
-2.63431e-12
8.1181e-12
-2.67677e-12
9.02399e-12
-2.72509e-12
9.94792e-12
-2.77945e-12
1.0892e-11
-2.84007e-12
1.18585e-11
-2.90728e-12
1.28495e-11
-2.98142e-12
1.38676e-11
-3.06279e-12
1.49151e-11
-3.15171e-12
1.59948e-11
-3.24854e-12
1.71094e-11
-3.35376e-12
1.82619e-11
-3.46789e-12
1.94553e-11
-3.59145e-12
2.0693e-11
-3.72496e-12
2.19784e-11
-3.86904e-12
2.33154e-11
-4.02436e-12
2.47078e-11
-4.19166e-12
2.61597e-11
-4.37168e-12
2.76757e-11
-4.56524e-12
2.92606e-11
-4.77321e-12
3.09193e-11
-4.99651e-12
3.26573e-11
-5.23618e-12
3.44803e-11
-5.49332e-12
3.63944e-11
-5.76905e-12
3.84061e-11
-6.06455e-12
4.05221e-11
-6.38104e-12
4.27498e-11
-6.71982e-12
4.5097e-11
-7.08229e-12
4.7572e-11
-7.46986e-12
5.01832e-11
-7.88397e-12
5.29399e-11
-8.32614e-12
5.58517e-11
-8.79794e-12
5.89286e-11
-9.30091e-12
6.21811e-11
-9.83644e-12
6.56202e-11
-1.04059e-11
6.92573e-11
-1.10107e-11
7.31045e-11
-1.16523e-11
7.71737e-11
-1.23318e-11
8.14772e-11
-1.30503e-11
8.60276e-11
-1.38083e-11
9.08377e-11
-1.46064e-11
9.59201e-11
-1.54445e-11
1.01287e-10
-1.63223e-11
1.0695e-10
-1.72389e-11
1.12922e-10
-1.81925e-11
1.19212e-10
-1.91809e-11
1.2583e-10
-2.02009e-11
1.32784e-10
-2.12482e-11
1.4008e-10
-2.23175e-11
1.47721e-10
-2.34019e-11
1.55708e-10
-2.44935e-11
1.6404e-10
-2.55822e-11
1.72709e-10
-2.66565e-11
1.81704e-10
-2.77028e-11
1.9101e-10
-2.87053e-11
2.00605e-10
-2.9646e-11
2.10459e-10
-3.05044e-11
2.20536e-10
-3.12576e-11
2.30793e-10
-3.18799e-11
2.41174e-10
-3.23433e-11
2.51617e-10
-3.2617e-11
2.62047e-10
-3.26675e-11
2.72378e-10
-3.24595e-11
2.82513e-10
-3.19552e-11
2.92344e-10
-3.11156e-11
3.01746e-10
-2.99004e-11
3.10587e-10
-2.8269e-11
3.18719e-10
-2.61814e-11
3.25983e-10
-2.35989e-11
3.32213e-10
-2.0486e-11
3.3723e-10
-1.68115e-11
3.40851e-10
-1.25501e-11
3.42887e-10
-7.68476e-12
3.43152e-10
-2.20896e-12
3.41461e-10
3.87073e-12
3.3764e-10
1.05316e-11
3.3153e-10
1.77317e-11
3.22996e-10
2.54057e-11
3.11934e-10
3.34615e-11
2.98279e-10
4.17752e-11
2.82021e-10
5.01868e-11
2.63211e-10
5.84949e-11
2.41979e-10
6.64518e-11
2.18544e-10
7.37584e-11
1.93228e-10
8.00599e-11
1.66472e-10
8.49431e-11
1.38847e-10
8.79359e-11
1.11064e-10
8.85138e-11
8.39777e-11
8.61135e-11
5.85942e-11
8.01641e-11
3.60681e-11
7.01405e-11
1.77165e-11
5.56557e-11
5.06416e-12
3.65901e-11
1.32999e-11
-5.27972e-12
1.76757e-11
-1.84048e-11
4.70397e-11
-3.73165e-11
7.03459e-11
-6.03797e-11
8.77345e-11
-8.62296e-11
9.96178e-11
-1.13705e-10
1.06577e-10
-1.41815e-10
1.09281e-10
-1.69725e-10
1.08419e-10
-1.96743e-10
1.0466e-10
-2.22312e-10
9.86245e-11
-2.45999e-10
9.08728e-11
-2.67486e-10
8.18981e-11
-2.86553e-10
7.21267e-11
-3.0307e-10
6.19198e-11
-3.16979e-10
5.15784e-11
-3.28289e-10
4.13487e-11
-3.37057e-10
3.14274e-11
-3.43383e-10
2.19676e-11
-3.47399e-10
1.30842e-11
-3.4926e-10
4.85832e-12
-3.49139e-10
-2.65665e-12
-3.47218e-10
-9.43111e-12
-3.43684e-10
-1.5456e-11
-3.38724e-10
-2.07382e-11
-3.32523e-10
-2.52976e-11
-3.25259e-10
-2.91644e-11
-3.17101e-10
-3.23768e-11
-3.08209e-10
-3.49776e-11
-2.98733e-10
-3.70145e-11
-2.88808e-10
-3.85362e-11
-2.78558e-10
-3.95927e-11
-2.68096e-10
-4.02334e-11
-2.57521e-10
-4.05067e-11
-2.4692e-10
-4.04586e-11
-2.3637e-10
-4.01335e-11
-2.25936e-10
-3.95722e-11
-2.15675e-10
-3.88129e-11
-2.05631e-10
-3.78904e-11
-1.95843e-10
-3.68365e-11
-1.86341e-10
-3.56796e-11
-1.77149e-10
-3.44451e-11
-1.68283e-10
-3.31553e-11
-1.59756e-10
-3.18299e-11
-1.51574e-10
-3.04859e-11
-1.4374e-10
-2.91376e-11
-1.36256e-10
-2.77974e-11
-1.29116e-10
-2.64753e-11
-1.22316e-10
-2.51799e-11
-1.15849e-10
-2.39179e-11
-1.09704e-10
-2.26946e-11
-1.03871e-10
-2.15141e-11
-9.83402e-11
-2.03793e-11
-9.30983e-11
-1.92923e-11
-8.81333e-11
-1.82543e-11
-8.34326e-11
-1.72658e-11
-7.89832e-11
-1.63268e-11
-7.47727e-11
-1.54368e-11
-7.07884e-11
-1.4595e-11
-6.70181e-11
-1.38001e-11
-6.34499e-11
-1.30508e-11
-6.00721e-11
-1.23455e-11
-5.68736e-11
-1.16825e-11
-5.38436e-11
-1.10599e-11
-5.09718e-11
-1.0476e-11
-4.82485e-11
-9.92886e-12
-4.56643e-11
-9.41662e-12
-4.32104e-11
-8.93746e-12
-4.08784e-11
-8.48956e-12
-3.86604e-11
-8.07121e-12
-3.65487e-11
-7.68069e-12
-3.45365e-11
-7.31639e-12
-3.26169e-11
-6.97677e-12
-3.07838e-11
-6.66038e-12
-2.90313e-11
-6.36582e-12
-2.73537e-11
-6.09176e-12
-2.57459e-11
-5.83692e-12
-2.42028e-11
-5.6002e-12
-2.27199e-11
-5.38054e-12
-2.12929e-11
-5.17692e-12
-1.99176e-11
-4.98835e-12
-1.85902e-11
-4.81394e-12
-1.73069e-11
-4.65292e-12
-1.60643e-11
-4.50457e-12
-1.48592e-11
-4.36822e-12
-1.36885e-11
-4.24317e-12
-1.25492e-11
-4.1288e-12
-1.14385e-11
-4.02462e-12
-1.03537e-11
-3.93021e-12
-9.29234e-12
-3.84515e-12
-8.25189e-12
-3.76902e-12
-7.23005e-12
-3.70143e-12
-6.22451e-12
-3.64208e-12
-5.23307e-12
-3.59071e-12
-4.25363e-12
-3.54711e-12
-3.28414e-12
-3.51104e-12
-2.3225e-12
-3.48234e-12
-1.36667e-12
-3.46092e-12
-4.14728e-13
-3.44673e-12
5.35208e-13
-3.43965e-12
1.48508e-12
-3.43955e-12
2.43688e-12
-3.44643e-12
3.39259e-12
-3.46038e-12
4.35416e-12
-3.4815e-12
5.3235e-12
-3.50985e-12
6.30262e-12
-3.54548e-12
7.2936e-12
-3.58855e-12
8.29855e-12
-3.63923e-12
9.31965e-12
-3.69778e-12
1.03591e-11
-3.76443e-12
1.14192e-11
-3.83946e-12
1.25023e-11
-3.92318e-12
1.3611e-11
-4.01595e-12
1.47478e-11
-4.11822e-12
1.59155e-11
-4.23044e-12
1.71169e-11
-4.3531e-12
1.8355e-11
-4.48672e-12
1.9633e-11
-4.63187e-12
2.09542e-11
-4.78923e-12
2.23223e-11
-4.95955e-12
2.37409e-11
-5.14361e-12
2.52139e-11
-5.34222e-12
2.67458e-11
-5.55627e-12
2.83408e-11
-5.78675e-12
3.00038e-11
-6.03469e-12
3.17398e-11
-6.30126e-12
3.35542e-11
-6.58765e-12
3.54528e-11
-6.89512e-12
3.74416e-11
-7.22501e-12
3.95271e-11
-7.5788e-12
4.17162e-11
-7.95804e-12
4.40163e-11
-8.3644e-12
4.64349e-11
-8.79957e-12
4.89803e-11
-9.26527e-12
5.16613e-11
-9.76334e-12
5.44872e-11
-1.02957e-11
5.74676e-11
-1.08643e-11
6.06126e-11
-1.14712e-11
6.39332e-11
-1.21184e-11
6.74405e-11
-1.2808e-11
7.11464e-11
-1.3542e-11
7.50629e-11
-1.43223e-11
7.92027e-11
-1.51507e-11
8.35791e-11
-1.60288e-11
8.82054e-11
-1.69582e-11
9.30954e-11
-1.79402e-11
9.82627e-11
-1.89756e-11
1.03721e-10
-2.00648e-11
1.09485e-10
-2.12079e-11
1.15567e-10
-2.24042e-11
1.2198e-10
-2.36522e-11
1.28737e-10
-2.49494e-11
1.35849e-10
-2.62924e-11
1.43325e-10
-2.76768e-11
1.51173e-10
-2.90964e-11
1.59399e-10
-3.05438e-11
1.68006e-10
-3.20093e-11
1.76995e-10
-3.34817e-11
1.8636e-10
-3.49473e-11
1.96093e-10
-3.639e-11
2.06182e-10