/*--------------------------------*- C++ -*----------------------------------*\
| =========                 |                                                 |
| \\      /  F ield         | OpenFOAM: The Open Source CFD Toolbox           |
|  \\    /   O peration     | Version:  2412                                  |
|   \\  /    A nd           | Website:  www.openfoam.com                      |
|    \\/     M anipulation  |                                                 |
\*---------------------------------------------------------------------------*/
FoamFile
{
    version     2.0;
    format      ascii;
    arch        "LSB;label=32;scalar=64";
    class       volVectorField;
    location    "1000";
    object      U;
}
// * * * * * * * * * * * * * * * * * * * * * * * * * * * * * * * * * * * * * //

dimensions      [0 1 -1 0 0 0 0];

internalField   nonuniform List<vector> 
40000
(
(4.71725e-08 -4.92472e-08 0)
(-4.60935e-08 -2.01268e-09 0)
(-4.23469e-07 4.88669e-08 0)
(-1.0317e-06 8.43366e-08 0)
(-1.8033e-06 1.04863e-07 0)
(-2.6727e-06 1.13998e-07 0)
(-3.58583e-06 1.15155e-07 0)
(-4.50066e-06 1.1095e-07 0)
(-5.38538e-06 1.03312e-07 0)
(-6.21687e-06 9.35192e-08 0)
(-6.97894e-06 8.25569e-08 0)
(-7.66096e-06 7.10186e-08 0)
(-8.25678e-06 5.94371e-08 0)
(-8.7636e-06 4.81247e-08 0)
(-9.18143e-06 3.72915e-08 0)
(-9.51235e-06 2.71144e-08 0)
(-9.76001e-06 1.76969e-08 0)
(-9.92922e-06 9.09966e-09 0)
(-1.00256e-05 1.35603e-09 0)
(-1.00553e-05 -5.532e-09 0)
(-1.00248e-05 -1.15742e-08 0)
(-9.94048e-06 -1.68129e-08 0)
(-9.80897e-06 -2.12687e-08 0)
(-9.63653e-06 -2.49995e-08 0)
(-9.42922e-06 -2.80603e-08 0)
(-9.19275e-06 -3.04993e-08 0)
(-8.93244e-06 -3.23639e-08 0)
(-8.65322e-06 -3.37476e-08 0)
(-8.35959e-06 -3.46766e-08 0)
(-8.05559e-06 -3.5202e-08 0)
(-7.74483e-06 -3.53862e-08 0)
(-7.43052e-06 -3.52745e-08 0)
(-7.11544e-06 -3.49077e-08 0)
(-6.80204e-06 -3.43472e-08 0)
(-6.49237e-06 -3.36024e-08 0)
(-6.18813e-06 -3.27108e-08 0)
(-5.8908e-06 -3.17282e-08 0)
(-5.60147e-06 -3.06441e-08 0)
(-5.3211e-06 -2.9528e-08 0)
(-5.05035e-06 -2.8329e-08 0)
(-4.78975e-06 -2.71622e-08 0)
(-4.5396e-06 -2.59204e-08 0)
(-4.30004e-06 -2.47253e-08 0)
(-4.07125e-06 -2.35589e-08 0)
(-3.85307e-06 -2.23857e-08 0)
(-3.64541e-06 -2.12696e-08 0)
(-3.44814e-06 -2.01779e-08 0)
(-3.2609e-06 -1.90881e-08 0)
(-3.08337e-06 -1.80567e-08 0)
(-2.91527e-06 -1.70956e-08 0)
(-2.75623e-06 -1.61711e-08 0)
(-2.60584e-06 -1.52879e-08 0)
(-2.46373e-06 -1.44642e-08 0)
(-2.32951e-06 -1.36864e-08 0)
(-2.20276e-06 -1.29361e-08 0)
(-2.08309e-06 -1.22219e-08 0)
(-1.9701e-06 -1.15533e-08 0)
(-1.86343e-06 -1.09267e-08 0)
(-1.7627e-06 -1.03389e-08 0)
(-1.66756e-06 -9.79179e-09 0)
(-1.57769e-06 -9.28328e-09 0)
(-1.49276e-06 -8.8082e-09 0)
(-1.41245e-06 -8.3623e-09 0)
(-1.33646e-06 -7.94362e-09 0)
(-1.26453e-06 -7.54963e-09 0)
(-1.19638e-06 -7.18017e-09 0)
(-1.13176e-06 -6.8356e-09 0)
(-1.07044e-06 -6.51668e-09 0)
(-1.01221e-06 -6.22232e-09 0)
(-9.56846e-07 -5.94915e-09 0)
(-9.04164e-07 -5.69311e-09 0)
(-8.53972e-07 -5.45387e-09 0)
(-8.06097e-07 -5.23139e-09 0)
(-7.60378e-07 -5.02533e-09 0)
(-7.16669e-07 -4.83544e-09 0)
(-6.74829e-07 -4.65882e-09 0)
(-6.34723e-07 -4.49549e-09 0)
(-5.96224e-07 -4.34234e-09 0)
(-5.59215e-07 -4.19934e-09 0)
(-5.23586e-07 -4.06105e-09 0)
(-4.89229e-07 -3.93214e-09 0)
(-4.56044e-07 -3.8204e-09 0)
(-4.23942e-07 -3.72859e-09 0)
(-3.92846e-07 -3.64693e-09 0)
(-3.62679e-07 -3.56177e-09 0)
(-3.33356e-07 -3.47268e-09 0)
(-3.0479e-07 -3.39051e-09 0)
(-2.76906e-07 -3.32446e-09 0)
(-2.49647e-07 -3.27307e-09 0)
(-2.22962e-07 -3.22687e-09 0)
(-1.96791e-07 -3.17997e-09 0)
(-1.71067e-07 -3.13488e-09 0)
(-1.45726e-07 -3.09595e-09 0)
(-1.20711e-07 -3.0647e-09 0)
(-9.59723e-08 -3.04098e-09 0)
(-7.14631e-08 -3.02445e-09 0)
(-4.71298e-08 -3.01427e-09 0)
(-2.29202e-08 -3.00741e-09 0)
(1.2098e-09 -2.99833e-09 0)
(2.53094e-08 -2.98635e-09 0)
(4.9439e-08 -2.98164e-09 0)
(7.36535e-08 -2.99581e-09 0)
(9.79937e-08 -3.02731e-09 0)
(1.22497e-07 -3.06173e-09 0)
(1.47212e-07 -3.08635e-09 0)
(1.722e-07 -3.10257e-09 0)
(1.97526e-07 -3.12339e-09 0)
(2.23244e-07 -3.15983e-09 0)
(2.49399e-07 -3.21213e-09 0)
(2.76039e-07 -3.27259e-09 0)
(3.03227e-07 -3.33411e-09 0)
(3.31033e-07 -3.39585e-09 0)
(3.5953e-07 -3.46233e-09 0)
(3.88782e-07 -3.53757e-09 0)
(4.18852e-07 -3.62194e-09 0)
(4.49815e-07 -3.71357e-09 0)
(4.81751e-07 -3.81246e-09 0)
(5.14749e-07 -3.9207e-09 0)
(5.48898e-07 -4.04031e-09 0)
(5.8429e-07 -4.17015e-09 0)
(6.21023e-07 -4.30738e-09 0)
(6.59208e-07 -4.4526e-09 0)
(6.9896e-07 -4.61064e-09 0)
(7.40393e-07 -4.78481e-09 0)
(7.83629e-07 -4.97369e-09 0)
(8.28806e-07 -5.17478e-09 0)
(8.76077e-07 -5.38908e-09 0)
(9.25604e-07 -5.62044e-09 0)
(9.77549e-07 -5.87033e-09 0)
(1.03209e-06 -6.13644e-09 0)
(1.0894e-06 -6.41834e-09 0)
(1.14969e-06 -6.72031e-09 0)
(1.21318e-06 -7.04734e-09 0)
(1.28009e-06 -7.40222e-09 0)
(1.35067e-06 -7.78619e-09 0)
(1.42518e-06 -8.1989e-09 0)
(1.50388e-06 -8.63767e-09 0)
(1.58707e-06 -9.10107e-09 0)
(1.67505e-06 -9.59247e-09 0)
(1.76815e-06 -1.01167e-08 0)
(1.8667e-06 -1.06755e-08 0)
(1.97106e-06 -1.12713e-08 0)
(2.0816e-06 -1.19143e-08 0)
(2.19873e-06 -1.2616e-08 0)
(2.32282e-06 -1.3373e-08 0)
(2.45428e-06 -1.41668e-08 0)
(2.59352e-06 -1.49854e-08 0)
(2.74099e-06 -1.58348e-08 0)
(2.89713e-06 -1.67292e-08 0)
(3.06238e-06 -1.76775e-08 0)
(3.23715e-06 -1.86853e-08 0)
(3.42185e-06 -1.97571e-08 0)
(3.61689e-06 -2.08916e-08 0)
(3.82262e-06 -2.20768e-08 0)
(4.03935e-06 -2.32959e-08 0)
(4.26736e-06 -2.45374e-08 0)
(4.50687e-06 -2.57996e-08 0)
(4.75803e-06 -2.70851e-08 0)
(5.02084e-06 -2.83879e-08 0)
(5.29522e-06 -2.9694e-08 0)
(5.58095e-06 -3.09868e-08 0)
(5.87765e-06 -3.22504e-08 0)
(6.18474e-06 -3.34702e-08 0)
(6.50146e-06 -3.46262e-08 0)
(6.82676e-06 -3.56904e-08 0)
(7.15936e-06 -3.66335e-08 0)
(7.49767e-06 -3.74228e-08 0)
(7.83975e-06 -3.80205e-08 0)
(8.18332e-06 -3.83871e-08 0)
(8.52569e-06 -3.84748e-08 0)
(8.86378e-06 -3.82305e-08 0)
(9.19405e-06 -3.76042e-08 0)
(9.51251e-06 -3.6539e-08 0)
(9.81471e-06 -3.49745e-08 0)
(1.00957e-05 -3.2857e-08 0)
(1.03501e-05 -3.01237e-08 0)
(1.05722e-05 -2.67107e-08 0)
(1.07555e-05 -2.25644e-08 0)
(1.08937e-05 -1.76258e-08 0)
(1.09797e-05 -1.18448e-08 0)
(1.10065e-05 -5.18181e-09 0)
(1.09672e-05 2.39331e-09 0)
(1.08547e-05 1.08886e-08 0)
(1.06625e-05 2.02989e-08 0)
(1.03845e-05 3.05899e-08 0)
(1.00157e-05 4.16906e-08 0)
(9.55225e-06 5.3485e-08 0)
(8.9921e-06 6.57867e-08 0)
(8.3355e-06 7.83357e-08 0)
(7.5857e-06 9.07687e-08 0)
(6.74973e-06 1.02572e-07 0)
(5.83947e-06 1.13025e-07 0)
(4.87282e-06 1.21109e-07 0)
(3.87525e-06 1.25377e-07 0)
(2.88155e-06 1.23774e-07 0)
(1.93771e-06 1.13472e-07 0)
(1.10238e-06 9.07877e-08 0)
(4.46553e-07 5.19525e-08 0)
(4.24423e-08 -3.32384e-09 0)
(-5.30158e-08 -5.4372e-08 0)
(-4.34379e-09 4.59052e-08 0)
(-5.25017e-07 5.01115e-07 0)
(-1.65961e-06 9.73225e-07 0)
(-3.29078e-06 1.34191e-06 0)
(-5.28644e-06 1.58879e-06 0)
(-7.51421e-06 1.72511e-06 0)
(-9.85601e-06 1.77075e-06 0)
(-1.22139e-05 1.74566e-06 0)
(-1.45098e-05 1.66746e-06 0)
(-1.6684e-05 1.55076e-06 0)
(-1.86926e-05 1.40756e-06 0)
(-2.0505e-05 1.24742e-06 0)
(-2.21021e-05 1.07807e-06 0)
(-2.34736e-05 9.05599e-07 0)
(-2.46166e-05 7.34708e-07 0)
(-2.5534e-05 5.69029e-07 0)
(-2.62332e-05 4.11307e-07 0)
(-2.67252e-05 2.6351e-07 0)
(-2.70233e-05 1.27013e-07 0)
(-2.71425e-05 2.65806e-09 0)
(-2.7099e-05 -1.0915e-07 0)
(-2.69093e-05 -2.08332e-07 0)
(-2.65902e-05 -2.95052e-07 0)
(-2.61581e-05 -3.69744e-07 0)
(-2.5629e-05 -4.32942e-07 0)
(-2.5018e-05 -4.85354e-07 0)
(-2.43394e-05 -5.27719e-07 0)
(-2.36064e-05 -5.60877e-07 0)
(-2.2831e-05 -5.85639e-07 0)
(-2.20245e-05 -6.02867e-07 0)
(-2.11968e-05 -6.13376e-07 0)
(-2.03565e-05 -6.17969e-07 0)
(-1.95116e-05 -6.17429e-07 0)
(-1.86687e-05 -6.12479e-07 0)
(-1.78337e-05 -6.03776e-07 0)
(-1.70115e-05 -5.91921e-07 0)
(-1.62062e-05 -5.77552e-07 0)
(-1.5421e-05 -5.61061e-07 0)
(-1.46587e-05 -5.4306e-07 0)
(-1.39214e-05 -5.23797e-07 0)
(-1.32105e-05 -5.03771e-07 0)
(-1.25272e-05 -4.83125e-07 0)
(-1.18721e-05 -4.6228e-07 0)
(-1.12454e-05 -4.4141e-07 0)
(-1.06472e-05 -4.20651e-07 0)
(-1.00773e-05 -4.00264e-07 0)
(-9.53516e-06 -3.80314e-07 0)
(-9.0202e-06 -3.60851e-07 0)
(-8.53164e-06 -3.42029e-07 0)
(-8.06863e-06 -3.23918e-07 0)
(-7.63021e-06 -3.06518e-07 0)
(-7.2154e-06 -2.89875e-07 0)
(-6.82317e-06 -2.74029e-07 0)
(-6.45246e-06 -2.58963e-07 0)
(-6.1022e-06 -2.44655e-07 0)
(-5.77137e-06 -2.31108e-07 0)
(-5.4589e-06 -2.18311e-07 0)
(-5.16378e-06 -2.0624e-07 0)
(-4.88502e-06 -1.94875e-07 0)
(-4.62167e-06 -1.84195e-07 0)
(-4.37281e-06 -1.74171e-07 0)
(-4.13755e-06 -1.64769e-07 0)
(-3.91504e-06 -1.55961e-07 0)
(-3.70448e-06 -1.47715e-07 0)
(-3.50511e-06 -1.4e-07 0)
(-3.31621e-06 -1.32787e-07 0)
(-3.13709e-06 -1.26049e-07 0)
(-2.96711e-06 -1.19761e-07 0)
(-2.80565e-06 -1.13901e-07 0)
(-2.65215e-06 -1.0844e-07 0)
(-2.50607e-06 -1.03348e-07 0)
(-2.36689e-06 -9.86029e-08 0)
(-2.23414e-06 -9.41856e-08 0)
(-2.10737e-06 -9.00778e-08 0)
(-1.98617e-06 -8.62639e-08 0)
(-1.87016e-06 -8.27218e-08 0)
(-1.75895e-06 -7.94367e-08 0)
(-1.65219e-06 -7.63899e-08 0)
(-1.54957e-06 -7.35688e-08 0)
(-1.45078e-06 -7.09477e-08 0)
(-1.35554e-06 -6.85168e-08 0)
(-1.26358e-06 -6.62747e-08 0)
(-1.17462e-06 -6.42253e-08 0)
(-1.08842e-06 -6.23563e-08 0)
(-1.00476e-06 -6.06393e-08 0)
(-9.23463e-07 -5.90554e-08 0)
(-8.44305e-07 -5.76008e-08 0)
(-7.67069e-07 -5.62848e-08 0)
(-6.91558e-07 -5.51134e-08 0)
(-6.17609e-07 -5.40724e-08 0)
(-5.45069e-07 -5.31441e-08 0)
(-4.73777e-07 -5.23227e-08 0)
(-4.03566e-07 -5.16084e-08 0)
(-3.34272e-07 -5.10021e-08 0)
(-2.65749e-07 -5.05036e-08 0)
(-1.97853e-07 -5.01091e-08 0)
(-1.30438e-07 -4.98169e-08 0)
(-6.33582e-08 -4.96291e-08 0)
(3.51049e-09 -4.95389e-08 0)
(7.02876e-08 -4.95324e-08 0)
(1.37114e-07 -4.96111e-08 0)
(2.04151e-07 -4.97931e-08 0)
(2.71553e-07 -5.0092e-08 0)
(3.39453e-07 -5.05021e-08 0)
(4.07967e-07 -5.10055e-08 0)
(4.77226e-07 -5.15923e-08 0)
(5.47382e-07 -5.22726e-08 0)
(6.18603e-07 -5.30673e-08 0)
(6.91047e-07 -5.39893e-08 0)
(7.64871e-07 -5.50356e-08 0)
(8.40234e-07 -5.61975e-08 0)
(9.17311e-07 -5.74737e-08 0)
(9.96287e-07 -5.88755e-08 0)
(1.07735e-06 -6.04182e-08 0)
(1.1607e-06 -6.21111e-08 0)
(1.24653e-06 -6.39574e-08 0)
(1.33507e-06 -6.59621e-08 0)
(1.42656e-06 -6.81356e-08 0)
(1.52123e-06 -7.04924e-08 0)
(1.61937e-06 -7.3043e-08 0)
(1.72124e-06 -7.57937e-08 0)
(1.82713e-06 -7.87548e-08 0)
(1.93736e-06 -8.19465e-08 0)
(2.05226e-06 -8.53904e-08 0)
(2.17218e-06 -8.90999e-08 0)
(2.29749e-06 -9.30852e-08 0)
(2.42861e-06 -9.73623e-08 0)
(2.56597e-06 -1.01956e-07 0)
(2.71004e-06 -1.0689e-07 0)
(2.8613e-06 -1.12186e-07 0)
(3.02027e-06 -1.17861e-07 0)
(3.18748e-06 -1.23943e-07 0)
(3.36355e-06 -1.30461e-07 0)
(3.54909e-06 -1.37445e-07 0)
(3.74478e-06 -1.44927e-07 0)
(3.95133e-06 -1.52934e-07 0)
(4.16949e-06 -1.61493e-07 0)
(4.40007e-06 -1.70631e-07 0)
(4.64389e-06 -1.80384e-07 0)
(4.90182e-06 -1.9079e-07 0)
(5.17479e-06 -2.01875e-07 0)
(5.46375e-06 -2.13661e-07 0)
(5.76972e-06 -2.2618e-07 0)
(6.09377e-06 -2.39484e-07 0)
(6.43699e-06 -2.5361e-07 0)
(6.80048e-06 -2.68565e-07 0)
(7.18536e-06 -2.84342e-07 0)
(7.59275e-06 -3.00941e-07 0)
(8.02381e-06 -3.18374e-07 0)
(8.47969e-06 -3.36638e-07 0)
(8.9615e-06 -3.55717e-07 0)
(9.47032e-06 -3.75584e-07 0)
(1.00072e-05 -3.96201e-07 0)
(1.0573e-05 -4.17503e-07 0)
(1.11686e-05 -4.39388e-07 0)
(1.17946e-05 -4.61723e-07 0)
(1.24515e-05 -4.84359e-07 0)
(1.31394e-05 -5.07132e-07 0)
(1.38583e-05 -5.29838e-07 0)
(1.4608e-05 -5.5222e-07 0)
(1.53874e-05 -5.73983e-07 0)
(1.61956e-05 -5.94777e-07 0)
(1.70306e-05 -6.14211e-07 0)
(1.78902e-05 -6.31845e-07 0)
(1.87714e-05 -6.47173e-07 0)
(1.96704e-05 -6.59632e-07 0)
(2.05827e-05 -6.68607e-07 0)
(2.15028e-05 -6.73418e-07 0)
(2.24243e-05 -6.73331e-07 0)
(2.33397e-05 -6.67555e-07 0)
(2.42404e-05 -6.55248e-07 0)
(2.51166e-05 -6.35542e-07 0)
(2.59575e-05 -6.07537e-07 0)
(2.67509e-05 -5.70314e-07 0)
(2.74834e-05 -5.22976e-07 0)
(2.81406e-05 -4.64648e-07 0)
(2.87069e-05 -3.94512e-07 0)
(2.91657e-05 -3.11858e-07 0)
(2.94998e-05 -2.16097e-07 0)
(2.96911e-05 -1.06823e-07 0)
(2.97217e-05 1.6139e-08 0)
(2.95735e-05 1.52663e-07 0)
(2.92292e-05 3.02234e-07 0)
(2.86727e-05 4.6389e-07 0)
(2.78896e-05 6.36102e-07 0)
(2.68686e-05 8.16665e-07 0)
(2.5602e-05 1.00256e-06 0)
(2.40872e-05 1.18975e-06 0)
(2.23279e-05 1.37303e-06 0)
(2.03359e-05 1.54573e-06 0)
(1.81328e-05 1.69947e-06 0)
(1.57527e-05 1.82376e-06 0)
(1.32439e-05 1.90562e-06 0)
(1.06721e-05 1.92916e-06 0)
(8.12267e-06 1.87541e-06 0)
(5.70245e-06 1.72294e-06 0)
(3.53955e-06 1.45064e-06 0)
(1.77715e-06 1.04709e-06 0)
(5.56546e-07 5.33584e-07 0)
(2.31344e-09 4.28511e-08 0)
(-5.98722e-08 4.46158e-07 0)
(-1.04292e-06 1.65076e-06 0)
(-2.88668e-06 2.77911e-06 0)
(-5.39599e-06 3.66396e-06 0)
(-8.39214e-06 4.27216e-06 0)
(-1.17049e-05 4.62182e-06 0)
(-1.51786e-05 4.75076e-06 0)
(-1.86802e-05 4.70086e-06 0)
(-2.21002e-05 4.51177e-06 0)
(-2.53523e-05 4.21835e-06 0)
(-2.8371e-05 3.8505e-06 0)
(-3.11095e-05 3.43297e-06 0)
(-3.35365e-05 2.98621e-06 0)
(-3.56342e-05 2.52678e-06 0)
(-3.73956e-05 2.06789e-06 0)
(-3.88227e-05 1.61989e-06 0)
(-3.99243e-05 1.1907e-06 0)
(-4.07149e-05 7.86174e-07 0)
(-4.12128e-05 4.10528e-07 0)
(-4.14392e-05 6.65011e-08 0)
(-4.14175e-05 -2.44393e-07 0)
(-4.11717e-05 -5.21549e-07 0)
(-4.07265e-05 -7.65216e-07 0)
(-4.01063e-05 -9.76252e-07 0)
(-3.93348e-05 -1.15593e-06 0)
(-3.84349e-05 -1.30599e-06 0)
(-3.74279e-05 -1.42837e-06 0)
(-3.63341e-05 -1.52518e-06 0)
(-3.51721e-05 -1.59864e-06 0)
(-3.39587e-05 -1.65102e-06 0)
(-3.27092e-05 -1.68452e-06 0)
(-3.14374e-05 -1.70134e-06 0)
(-3.01553e-05 -1.70359e-06 0)
(-2.88735e-05 -1.69323e-06 0)
(-2.7601e-05 -1.67212e-06 0)
(-2.63457e-05 -1.64202e-06 0)
(-2.51141e-05 -1.60445e-06 0)
(-2.39114e-05 -1.56085e-06 0)
(-2.27422e-05 -1.51254e-06 0)
(-2.16096e-05 -1.46063e-06 0)
(-2.05163e-05 -1.40614e-06 0)
(-1.94642e-05 -1.34996e-06 0)
(-1.84543e-05 -1.29283e-06 0)
(-1.74874e-05 -1.23539e-06 0)
(-1.65635e-05 -1.17824e-06 0)
(-1.56825e-05 -1.12182e-06 0)
(-1.48438e-05 -1.06648e-06 0)
(-1.40464e-05 -1.01256e-06 0)
(-1.32894e-05 -9.60278e-07 0)
(-1.25715e-05 -9.09808e-07 0)
(-1.18913e-05 -8.61281e-07 0)
(-1.12473e-05 -8.14811e-07 0)
(-1.06381e-05 -7.70452e-07 0)
(-1.0062e-05 -7.28219e-07 0)
(-9.5174e-06 -6.88119e-07 0)
(-9.00278e-06 -6.50134e-07 0)
(-8.51654e-06 -6.14216e-07 0)
(-8.05712e-06 -5.8031e-07 0)
(-7.62302e-06 -5.48366e-07 0)
(-7.21278e-06 -5.18317e-07 0)
(-6.825e-06 -4.90083e-07 0)
(-6.45832e-06 -4.63584e-07 0)
(-6.11144e-06 -4.38742e-07 0)
(-5.78311e-06 -4.15479e-07 0)
(-5.47216e-06 -3.93712e-07 0)
(-5.17748e-06 -3.73363e-07 0)
(-4.89801e-06 -3.54351e-07 0)
(-4.63277e-06 -3.366e-07 0)
(-4.3808e-06 -3.20037e-07 0)
(-4.14121e-06 -3.04592e-07 0)
(-3.91317e-06 -2.90198e-07 0)
(-3.69589e-06 -2.76787e-07 0)
(-3.48863e-06 -2.64302e-07 0)
(-3.29071e-06 -2.52687e-07 0)
(-3.10148e-06 -2.41891e-07 0)
(-2.92032e-06 -2.31863e-07 0)
(-2.74666e-06 -2.22553e-07 0)
(-2.57995e-06 -2.13917e-07 0)
(-2.41969e-06 -2.05921e-07 0)
(-2.2654e-06 -1.98524e-07 0)
(-2.11665e-06 -1.91685e-07 0)
(-1.97302e-06 -1.8536e-07 0)
(-1.8341e-06 -1.79526e-07 0)
(-1.69951e-06 -1.74174e-07 0)
(-1.56888e-06 -1.69286e-07 0)
(-1.44189e-06 -1.64825e-07 0)
(-1.31824e-06 -1.60752e-07 0)
(-1.19762e-06 -1.57042e-07 0)
(-1.07971e-06 -1.53697e-07 0)
(-9.64253e-07 -1.50715e-07 0)
(-8.50975e-07 -1.48078e-07 0)
(-7.39631e-07 -1.45765e-07 0)
(-6.29974e-07 -1.43759e-07 0)
(-5.21758e-07 -1.42052e-07 0)
(-4.1475e-07 -1.4064e-07 0)
(-3.08726e-07 -1.39514e-07 0)
(-2.03465e-07 -1.38666e-07 0)
(-9.87393e-08 -1.38108e-07 0)
(5.67295e-09 -1.37844e-07 0)
(1.09977e-07 -1.37862e-07 0)
(2.14371e-07 -1.38138e-07 0)
(3.19068e-07 -1.38668e-07 0)
(4.24297e-07 -1.3947e-07 0)
(5.30291e-07 -1.40569e-07 0)
(6.37269e-07 -1.41972e-07 0)
(7.45443e-07 -1.43669e-07 0)
(8.55028e-07 -1.45652e-07 0)
(9.6626e-07 -1.47931e-07 0)
(1.07939e-06 -1.50527e-07 0)
(1.19467e-06 -1.53457e-07 0)
(1.31237e-06 -1.5673e-07 0)
(1.43276e-06 -1.60355e-07 0)
(1.55611e-06 -1.64346e-07 0)
(1.68271e-06 -1.68728e-07 0)
(1.81289e-06 -1.73524e-07 0)
(1.94695e-06 -1.78756e-07 0)
(2.08525e-06 -1.84442e-07 0)
(2.22815e-06 -1.90605e-07 0)
(2.37603e-06 -1.97276e-07 0)
(2.52931e-06 -2.04489e-07 0)
(2.68843e-06 -2.12277e-07 0)
(2.85382e-06 -2.20675e-07 0)
(3.02599e-06 -2.29723e-07 0)
(3.20543e-06 -2.39466e-07 0)
(3.39272e-06 -2.49952e-07 0)
(3.58844e-06 -2.61224e-07 0)
(3.79322e-06 -2.73331e-07 0)
(4.00773e-06 -2.86327e-07 0)
(4.23268e-06 -3.00275e-07 0)
(4.46885e-06 -3.15243e-07 0)
(4.71702e-06 -3.31296e-07 0)
(4.97807e-06 -3.48502e-07 0)
(5.25289e-06 -3.66935e-07 0)
(5.54247e-06 -3.86669e-07 0)
(5.84783e-06 -4.07785e-07 0)
(6.17009e-06 -4.30366e-07 0)
(6.51041e-06 -4.54495e-07 0)
(6.87e-06 -4.80261e-07 0)
(7.25015e-06 -5.07757e-07 0)
(7.65222e-06 -5.3708e-07 0)
(8.07764e-06 -5.68318e-07 0)
(8.52788e-06 -6.01542e-07 0)
(9.00446e-06 -6.36813e-07 0)
(9.50898e-06 -6.74199e-07 0)
(1.00431e-05 -7.13785e-07 0)
(1.06085e-05 -7.55649e-07 0)
(1.1207e-05 -7.9983e-07 0)
(1.18402e-05 -8.46333e-07 0)
(1.25099e-05 -8.95147e-07 0)
(1.32177e-05 -9.46241e-07 0)
(1.39654e-05 -9.99539e-07 0)
(1.47545e-05 -1.05492e-06 0)
(1.55865e-05 -1.11224e-06 0)
(1.64627e-05 -1.1713e-06 0)
(1.73843e-05 -1.23186e-06 0)
(1.83521e-05 -1.29356e-06 0)
(1.93667e-05 -1.35597e-06 0)
(2.04283e-05 -1.41857e-06 0)
(2.15367e-05 -1.48076e-06 0)
(2.2691e-05 -1.54181e-06 0)
(2.389e-05 -1.60089e-06 0)
(2.51315e-05 -1.657e-06 0)
(2.64126e-05 -1.70904e-06 0)
(2.77295e-05 -1.75573e-06 0)
(2.90773e-05 -1.79568e-06 0)
(3.04501e-05 -1.82729e-06 0)
(3.18406e-05 -1.84886e-06 0)
(3.32401e-05 -1.85848e-06 0)
(3.46385e-05 -1.85414e-06 0)
(3.60242e-05 -1.83367e-06 0)
(3.73839e-05 -1.79478e-06 0)
(3.87024e-05 -1.73511e-06 0)
(3.99628e-05 -1.65223e-06 0)
(4.11467e-05 -1.54371e-06 0)
(4.22336e-05 -1.40716e-06 0)
(4.32014e-05 -1.24032e-06 0)
(4.40268e-05 -1.04109e-06 0)
(4.46848e-05 -8.07703e-07 0)
(4.51495e-05 -5.38792e-07 0)
(4.53944e-05 -2.33522e-07 0)
(4.53929e-05 1.08249e-07 0)
(4.51189e-05 4.85803e-07 0)
(4.45473e-05 8.97332e-07 0)
(4.36554e-05 1.33973e-06 0)
(4.24237e-05 1.80831e-06 0)
(4.0837e-05 2.29651e-06 0)
(3.88863e-05 2.79557e-06 0)
(3.65703e-05 3.29406e-06 0)
(3.38974e-05 3.77749e-06 0)
(3.08881e-05 4.22775e-06 0)
(2.75772e-05 4.62254e-06 0)
(2.40169e-05 4.93481e-06 0)
(2.02791e-05 5.13224e-06 0)
(1.64587e-05 5.17704e-06 0)
(1.26753e-05 5.02656e-06 0)
(9.0739e-06 4.63596e-06 0)
(5.82335e-06 3.96528e-06 0)
(3.10756e-06 2.99674e-06 0)
(1.11805e-06 1.76917e-06 0)
(6.27734e-08 4.68929e-07 0)
(-1.01329e-07 1.10709e-06 0)
(-1.47781e-06 3.3603e-06 0)
(-3.92903e-06 5.32415e-06 0)
(-7.17424e-06 6.84484e-06 0)
(-1.09881e-05 7.8959e-06 0)
(-1.51716e-05 8.50936e-06 0)
(-1.95442e-05 8.74365e-06 0)
(-2.39502e-05 8.6647e-06 0)
(-2.82598e-05 8.33697e-06 0)
(-3.23686e-05 7.81904e-06 0)
(-3.61957e-05 7.16232e-06 0)
(-3.96817e-05 6.41055e-06 0)
(-4.27856e-05 5.60053e-06 0)
(-4.54829e-05 4.76244e-06 0)
(-4.77623e-05 3.92088e-06 0)
(-4.9624e-05 3.09539e-06 0)
(-5.10768e-05 2.30113e-06 0)
(-5.21369e-05 1.54956e-06 0)
(-5.28257e-05 8.48944e-07 0)
(-5.31686e-05 2.04909e-07 0)
(-5.31937e-05 -3.79187e-07 0)
(-5.29307e-05 -9.01848e-07 0)
(-5.241e-05 -1.36308e-06 0)
(-5.1662e-05 -1.76412e-06 0)
(-5.07166e-05 -2.10714e-06 0)
(-4.96025e-05 -2.39505e-06 0)
(-4.8347e-05 -2.63127e-06 0)
(-4.69757e-05 -2.81959e-06 0)
(-4.55124e-05 -2.96403e-06 0)
(-4.39788e-05 -3.06867e-06 0)
(-4.23948e-05 -3.13761e-06 0)
(-4.07781e-05 -3.17492e-06 0)
(-3.91443e-05 -3.18439e-06 0)
(-3.75074e-05 -3.1698e-06 0)
(-3.58793e-05 -3.13457e-06 0)
(-3.42703e-05 -3.08196e-06 0)
(-3.26889e-05 -3.01486e-06 0)
(-3.11425e-05 -2.93609e-06 0)
(-2.96368e-05 -2.84794e-06 0)
(-2.81765e-05 -2.7527e-06 0)
(-2.67651e-05 -2.65222e-06 0)
(-2.54051e-05 -2.54824e-06 0)
(-2.40984e-05 -2.44216e-06 0)
(-2.28461e-05 -2.33523e-06 0)
(-2.16483e-05 -2.22859e-06 0)
(-2.0505e-05 -2.12308e-06 0)
(-1.94157e-05 -2.01941e-06 0)
(-1.83793e-05 -1.91822e-06 0)
(-1.73945e-05 -1.81998e-06 0)
(-1.646e-05 -1.72504e-06 0)
(-1.55739e-05 -1.63368e-06 0)
(-1.47345e-05 -1.54608e-06 0)
(-1.394e-05 -1.46236e-06 0)
(-1.31882e-05 -1.38258e-06 0)
(-1.24771e-05 -1.30677e-06 0)
(-1.18049e-05 -1.23489e-06 0)
(-1.11694e-05 -1.16688e-06 0)
(-1.05687e-05 -1.10265e-06 0)
(-1.00009e-05 -1.04211e-06 0)
(-9.46413e-06 -9.85115e-07 0)
(-8.95652e-06 -9.3154e-07 0)
(-8.47637e-06 -8.81237e-07 0)
(-8.02201e-06 -8.34057e-07 0)
(-7.59183e-06 -7.89851e-07 0)
(-7.18432e-06 -7.48472e-07 0)
(-6.79802e-06 -7.09773e-07 0)
(-6.43159e-06 -6.7361e-07 0)
(-6.08372e-06 -6.39837e-07 0)
(-5.7532e-06 -6.08313e-07 0)
(-5.43887e-06 -5.78908e-07 0)
(-5.13963e-06 -5.51495e-07 0)
(-4.85447e-06 -5.25958e-07 0)
(-4.58243e-06 -5.02182e-07 0)
(-4.32261e-06 -4.8006e-07 0)
(-4.07417e-06 -4.5949e-07 0)
(-3.83629e-06 -4.40379e-07 0)
(-3.60824e-06 -4.2263e-07 0)
(-3.38931e-06 -4.06159e-07 0)
(-3.17883e-06 -3.90891e-07 0)
(-2.97619e-06 -3.7677e-07 0)
(-2.78079e-06 -3.6373e-07 0)
(-2.59209e-06 -3.51696e-07 0)
(-2.40958e-06 -3.40595e-07 0)
(-2.23277e-06 -3.3038e-07 0)
(-2.06117e-06 -3.21021e-07 0)
(-1.89434e-06 -3.12481e-07 0)
(-1.73186e-06 -3.04712e-07 0)
(-1.57335e-06 -2.97662e-07 0)
(-1.41843e-06 -2.91298e-07 0)
(-1.26673e-06 -2.85602e-07 0)
(-1.11789e-06 -2.80553e-07 0)
(-9.71586e-07 -2.76126e-07 0)
(-8.27488e-07 -2.72293e-07 0)
(-6.85284e-07 -2.6904e-07 0)
(-5.44664e-07 -2.66353e-07 0)
(-4.05329e-07 -2.64217e-07 0)
(-2.66998e-07 -2.62614e-07 0)
(-1.2939e-07 -2.61538e-07 0)
(7.79264e-09 -2.60997e-07 0)
(1.44844e-07 -2.60998e-07 0)
(2.82042e-07 -2.61534e-07 0)
(4.19654e-07 -2.62587e-07 0)
(5.57954e-07 -2.64152e-07 0)
(6.97231e-07 -2.66246e-07 0)
(8.3779e-07 -2.68892e-07 0)
(9.7993e-07 -2.72107e-07 0)
(1.12394e-06 -2.75897e-07 0)
(1.27012e-06 -2.80268e-07 0)
(1.41879e-06 -2.85237e-07 0)
(1.57029e-06 -2.90827e-07 0)
(1.72495e-06 -2.97068e-07 0)
(1.88315e-06 -3.03988e-07 0)
(2.04524e-06 -3.11618e-07 0)
(2.2116e-06 -3.19992e-07 0)
(2.38264e-06 -3.29148e-07 0)
(2.5588e-06 -3.39126e-07 0)
(2.74052e-06 -3.49974e-07 0)
(2.92828e-06 -3.61739e-07 0)
(3.12257e-06 -3.74471e-07 0)
(3.32395e-06 -3.88232e-07 0)
(3.53297e-06 -4.03088e-07 0)
(3.75024e-06 -4.19112e-07 0)
(3.97639e-06 -4.36374e-07 0)
(4.21208e-06 -4.54952e-07 0)
(4.45805e-06 -4.74933e-07 0)
(4.71507e-06 -4.96411e-07 0)
(4.98397e-06 -5.19486e-07 0)
(5.26561e-06 -5.44256e-07 0)
(5.56092e-06 -5.70832e-07 0)
(5.87089e-06 -5.99337e-07 0)
(6.19658e-06 -6.299e-07 0)
(6.5391e-06 -6.62653e-07 0)
(6.89964e-06 -6.97736e-07 0)
(7.27947e-06 -7.35292e-07 0)
(7.67992e-06 -7.75468e-07 0)
(8.10244e-06 -8.18414e-07 0)
(8.5485e-06 -8.64291e-07 0)
(9.01971e-06 -9.13263e-07 0)
(9.5177e-06 -9.65494e-07 0)
(1.00442e-05 -1.02115e-06 0)
(1.06011e-05 -1.08039e-06 0)
(1.11903e-05 -1.1434e-06 0)
(1.18138e-05 -1.2103e-06 0)
(1.24736e-05 -1.2812e-06 0)
(1.31718e-05 -1.3562e-06 0)
(1.39105e-05 -1.43542e-06 0)
(1.4692e-05 -1.51892e-06 0)
(1.55184e-05 -1.60672e-06 0)
(1.63919e-05 -1.69881e-06 0)
(1.73146e-05 -1.79512e-06 0)
(1.82887e-05 -1.89551e-06 0)
(1.9316e-05 -1.99974e-06 0)
(2.03985e-05 -2.1075e-06 0)
(2.15375e-05 -2.21835e-06 0)
(2.27346e-05 -2.33179e-06 0)
(2.39907e-05 -2.44716e-06 0)
(2.53063e-05 -2.56362e-06 0)
(2.66815e-05 -2.68017e-06 0)
(2.81159e-05 -2.79564e-06 0)
(2.96081e-05 -2.90862e-06 0)
(3.11562e-05 -3.01751e-06 0)
(3.27573e-05 -3.12044e-06 0)
(3.44072e-05 -3.21528e-06 0)
(3.61009e-05 -3.29964e-06 0)
(3.78317e-05 -3.37085e-06 0)
(3.95916e-05 -3.42593e-06 0)
(4.1371e-05 -3.46165e-06 0)
(4.31585e-05 -3.47445e-06 0)
(4.49408e-05 -3.46056e-06 0)
(4.67026e-05 -3.41593e-06 0)
(4.84266e-05 -3.33636e-06 0)
(5.00932e-05 -3.21745e-06 0)
(5.16806e-05 -3.05478e-06 0)
(5.3165e-05 -2.84392e-06 0)
(5.45203e-05 -2.58055e-06 0)
(5.57183e-05 -2.26063e-06 0)
(5.67294e-05 -1.88052e-06 0)
(5.7522e-05 -1.43715e-06 0)
(5.80638e-05 -9.28305e-07 0)
(5.83218e-05 -3.52795e-07 0)
(5.82629e-05 2.89203e-07 0)
(5.78551e-05 9.95862e-07 0)
(5.70682e-05 1.76331e-06 0)
(5.58749e-05 2.5852e-06 0)
(5.42526e-05 3.45228e-06 0)
(5.21843e-05 4.35178e-06 0)
(4.96612e-05 5.26695e-06 0)
(4.66843e-05 6.17626e-06 0)
(4.32666e-05 7.05282e-06 0)
(3.94361e-05 7.8635e-06 0)
(3.52385e-05 8.56825e-06 0)
(3.07395e-05 9.1194e-06 0)
(2.60282e-05 9.46128e-06 0)
(2.12192e-05 9.53057e-06 0)
(1.64544e-05 9.25802e-06 0)
(1.1903e-05 8.57316e-06 0)
(7.76106e-06 7.41446e-06 0)
(4.24351e-06 5.75013e-06 0)
(1.59226e-06 3.61349e-06 0)
(1.08109e-07 1.17872e-06 0)
(-1.28573e-07 1.97098e-06 0)
(-1.80654e-06 5.52464e-06 0)
(-4.74048e-06 8.47344e-06 0)
(-8.57347e-06 1.07203e-05 0)
(-1.30366e-05 1.22692e-05 0)
(-1.79054e-05 1.31775e-05 0)
(-2.29802e-05 1.3529e-05 0)
(-2.80902e-05 1.34161e-05 0)
(-3.30923e-05 1.29295e-05 0)
(-3.78697e-05 1.21533e-05 0)
(-4.23313e-05 1.11622e-05 0)
(-4.64084e-05 1.00213e-05 0)
(-5.00531e-05 8.78578e-06 0)
(-5.32351e-05 7.50169e-06 0)
(-5.59396e-05 6.20698e-06 0)
(-5.81642e-05 4.93211e-06 0)
(-5.99172e-05 3.70116e-06 0)
(-6.12153e-05 2.53249e-06 0)
(-6.20815e-05 1.43958e-06 0)
(-6.25436e-05 4.31768e-07 0)
(-6.26331e-05 -4.8507e-07 0)
(-6.23832e-05 -1.30809e-06 0)
(-6.18285e-05 -2.03676e-06 0)
(-6.10038e-05 -2.67254e-06 0)
(-5.99433e-05 -3.21845e-06 0)
(-5.86803e-05 -3.67865e-06 0)
(-5.72465e-05 -4.05821e-06 0)
(-5.56717e-05 -4.36283e-06 0)
(-5.39839e-05 -4.59852e-06 0)
(-5.22086e-05 -4.77156e-06 0)
(-5.03692e-05 -4.88827e-06 0)
(-4.84867e-05 -4.95481e-06 0)
(-4.65798e-05 -4.97722e-06 0)
(-4.46651e-05 -4.96123e-06 0)
(-4.2757e-05 -4.91226e-06 0)
(-4.08678e-05 -4.83533e-06 0)
(-3.90081e-05 -4.73513e-06 0)
(-3.71867e-05 -4.61589e-06 0)
(-3.54107e-05 -4.48143e-06 0)
(-3.36859e-05 -4.33521e-06 0)
(-3.20168e-05 -4.1803e-06 0)
(-3.04067e-05 -4.01934e-06 0)
(-2.88578e-05 -3.85471e-06 0)
(-2.73717e-05 -3.68838e-06 0)
(-2.59491e-05 -3.52206e-06 0)
(-2.45898e-05 -3.3572e-06 0)
(-2.32935e-05 -3.19502e-06 0)
(-2.20591e-05 -3.03644e-06 0)
(-2.08853e-05 -2.88225e-06 0)
(-1.97705e-05 -2.73307e-06 0)
(-1.87127e-05 -2.58937e-06 0)
(-1.771e-05 -2.45145e-06 0)
(-1.67602e-05 -2.31951e-06 0)
(-1.58609e-05 -2.19369e-06 0)
(-1.50099e-05 -2.07402e-06 0)
(-1.42049e-05 -1.96048e-06 0)
(-1.34435e-05 -1.85297e-06 0)
(-1.27234e-05 -1.75138e-06 0)
(-1.20424e-05 -1.65555e-06 0)
(-1.13983e-05 -1.5653e-06 0)
(-1.07889e-05 -1.48042e-06 0)
(-1.02123e-05 -1.40068e-06 0)
(-9.66643e-06 -1.32587e-06 0)
(-9.14943e-06 -1.25574e-06 0)
(-8.6595e-06 -1.19008e-06 0)
(-8.19495e-06 -1.12864e-06 0)
(-7.75414e-06 -1.0712e-06 0)
(-7.33554e-06 -1.01755e-06 0)
(-6.93771e-06 -9.67455e-07 0)
(-6.55926e-06 -9.20713e-07 0)
(-6.19891e-06 -8.77128e-07 0)
(-5.85544e-06 -8.36514e-07 0)
(-5.5277e-06 -7.98694e-07 0)
(-5.21463e-06 -7.63497e-07 0)
(-4.9152e-06 -7.30764e-07 0)
(-4.62847e-06 -7.00344e-07 0)
(-4.35353e-06 -6.72096e-07 0)
(-4.08954e-06 -6.45883e-07 0)
(-3.83573e-06 -6.21577e-07 0)
(-3.59134e-06 -5.99077e-07 0)
(-3.35567e-06 -5.78284e-07 0)
(-3.12804e-06 -5.59104e-07 0)
(-2.90784e-06 -5.41435e-07 0)
(-2.69449e-06 -5.25182e-07 0)
(-2.48744e-06 -5.10271e-07 0)
(-2.28613e-06 -4.96641e-07 0)
(-2.09006e-06 -4.8424e-07 0)
(-1.89876e-06 -4.73006e-07 0)
(-1.71177e-06 -4.62879e-07 0)
(-1.52867e-06 -4.53811e-07 0)
(-1.34901e-06 -4.45761e-07 0)
(-1.17241e-06 -4.38695e-07 0)
(-9.9846e-07 -4.32579e-07 0)
(-8.26799e-07 -4.27385e-07 0)
(-6.57048e-07 -4.23092e-07 0)
(-4.88841e-07 -4.19686e-07 0)
(-3.21831e-07 -4.1715e-07 0)
(-1.55686e-07 -4.15459e-07 0)
(9.93297e-09 -4.14598e-07 0)
(1.75378e-07 -4.14574e-07 0)
(3.41002e-07 -4.15396e-07 0)
(5.07141e-07 -4.17069e-07 0)
(6.74122e-07 -4.19587e-07 0)
(8.42282e-07 -4.22952e-07 0)
(1.01197e-06 -4.27178e-07 0)
(1.18356e-06 -4.32293e-07 0)
(1.35741e-06 -4.38324e-07 0)
(1.53388e-06 -4.45295e-07 0)
(1.71336e-06 -4.53226e-07 0)
(1.89624e-06 -4.62147e-07 0)
(2.08294e-06 -4.721e-07 0)
(2.27388e-06 -4.83136e-07 0)
(2.46952e-06 -4.95307e-07 0)
(2.6703e-06 -5.08664e-07 0)
(2.87673e-06 -5.23263e-07 0)
(3.08932e-06 -5.39168e-07 0)
(3.3086e-06 -5.56455e-07 0)
(3.53516e-06 -5.75203e-07 0)
(3.76958e-06 -5.95496e-07 0)
(4.01253e-06 -6.17424e-07 0)
(4.26466e-06 -6.41093e-07 0)
(4.52672e-06 -6.66616e-07 0)
(4.79945e-06 -6.9411e-07 0)
(5.08366e-06 -7.23694e-07 0)
(5.38023e-06 -7.55503e-07 0)
(5.69007e-06 -7.89687e-07 0)
(6.01416e-06 -8.26404e-07 0)
(6.35356e-06 -8.65819e-07 0)
(6.70937e-06 -9.08104e-07 0)
(7.08277e-06 -9.53447e-07 0)
(7.47501e-06 -1.00205e-06 0)
(7.88742e-06 -1.05411e-06 0)
(8.32142e-06 -1.10986e-06 0)
(8.77852e-06 -1.16952e-06 0)
(9.26031e-06 -1.23333e-06 0)
(9.76849e-06 -1.30151e-06 0)
(1.03048e-05 -1.37434e-06 0)
(1.08712e-05 -1.45205e-06 0)
(1.14695e-05 -1.53491e-06 0)
(1.21019e-05 -1.62316e-06 0)
(1.27705e-05 -1.71702e-06 0)
(1.34776e-05 -1.81677e-06 0)
(1.42254e-05 -1.92262e-06 0)
(1.50164e-05 -2.03477e-06 0)
(1.58531e-05 -2.15337e-06 0)
(1.67378e-05 -2.27856e-06 0)
(1.76733e-05 -2.4104e-06 0)
(1.86619e-05 -2.54893e-06 0)
(1.97062e-05 -2.69409e-06 0)
(2.08086e-05 -2.84573e-06 0)
(2.19716e-05 -3.0036e-06 0)
(2.31973e-05 -3.16735e-06 0)
(2.44877e-05 -3.33646e-06 0)
(2.58445e-05 -3.51022e-06 0)
(2.72692e-05 -3.68776e-06 0)
(2.87628e-05 -3.868e-06 0)
(3.03257e-05 -4.04961e-06 0)
(3.19578e-05 -4.23098e-06 0)
(3.36582e-05 -4.41021e-06 0)
(3.54253e-05 -4.58505e-06 0)
(3.72564e-05 -4.75293e-06 0)
(3.91477e-05 -4.91088e-06 0)
(4.10942e-05 -5.05553e-06 0)
(4.30894e-05 -5.18308e-06 0)
(4.51252e-05 -5.28932e-06 0)
(4.71919e-05 -5.36957e-06 0)
(4.92777e-05 -5.41874e-06 0)
(5.13689e-05 -5.43129e-06 0)
(5.34496e-05 -5.4013e-06 0)
(5.55015e-05 -5.32252e-06 0)
(5.75039e-05 -5.18841e-06 0)
(5.94335e-05 -4.99222e-06 0)
(6.12649e-05 -4.72714e-06 0)
(6.29697e-05 -4.38642e-06 0)
(6.45175e-05 -3.96355e-06 0)
(6.58756e-05 -3.45245e-06 0)
(6.70093e-05 -2.84777e-06 0)
(6.78824e-05 -2.14512e-06 0)
(6.84575e-05 -1.34144e-06 0)
(6.86969e-05 -4.3539e-07 0)
(6.85633e-05 5.72214e-07 0)
(6.80205e-05 1.6779e-06 0)
(6.70348e-05 2.87498e-06 0)
(6.55766e-05 4.15292e-06 0)
(6.36212e-05 5.49666e-06 0)
(6.11514e-05 6.88581e-06 0)
(5.81592e-05 8.29383e-06 0)
(5.46481e-05 9.68716e-06 0)
(5.06354e-05 1.10243e-05 0)
(4.61553e-05 1.22548e-05 0)
(4.12612e-05 1.33184e-05 0)
(3.60289e-05 1.41446e-05 0)
(3.0559e-05 1.46522e-05 0)
(2.49791e-05 1.47508e-05 0)
(1.94457e-05 1.43426e-05 0)
(1.41448e-05 1.33291e-05 0)
(9.29265e-06 1.16221e-05 0)
(5.13211e-06 9.16332e-06 0)
(1.9526e-06 5.9546e-06 0)
(1.38107e-07 2.11061e-06 0)