/*--------------------------------*- C++ -*----------------------------------*\
| =========                 |                                                 |
| \\      /  F ield         | OpenFOAM: The Open Source CFD Toolbox           |
|  \\    /   O peration     | Version:  2412                                  |
|   \\  /    A nd           | Website:  www.openfoam.com                      |
|    \\/     M anipulation  |                                                 |
\*---------------------------------------------------------------------------*/
FoamFile
{
    version     2.0;
    format      ascii;
    arch        "LSB;label=32;scalar=64";
    class       volScalarField;
    location    "600";
    object      p;
}
// * * * * * * * * * * * * * * * * * * * * * * * * * * * * * * * * * * * * * //

dimensions      [0 2 -2 0 0 0 0];

internalField   nonuniform List<scalar> 
40000
(
0
-1.91937e-06
-3.50587e-06
-4.0535e-06
-3.23792e-06
-9.99883e-07
2.5764e-06
7.33409e-06
1.30825e-05
1.96267e-05
2.6776e-05
3.43549e-05
4.22076e-05
5.01954e-05
5.82049e-05
6.61362e-05
7.39141e-05
8.14721e-05
8.87642e-05
9.57544e-05
0.00010242
0.000108745
0.000114723
0.000120353
0.000125639
0.000130592
0.000135219
0.000139538
0.000143561
0.000147306
0.000150789
0.000154025
0.000157032
0.000159825
0.00016242
0.00016483
0.00016707
0.000169153
0.00017109
0.000172893
0.000174573
0.000176137
0.000177597
0.00017896
0.000180234
0.000181425
0.000182539
0.000183584
0.000184563
0.000185481
0.000186344
0.000187154
0.000187917
0.000188635
0.000189311
0.000189949
0.00019055
0.000191117
0.000191653
0.000192159
0.000192638
0.00019309
0.000193518
0.000193922
0.000194305
0.000194668
0.000195011
0.000195335
0.000195642
0.000195932
0.000196207
0.000196466
0.000196712
0.000196944
0.000197162
0.000197368
0.000197562
0.000197745
0.000197916
0.000198077
0.000198227
0.000198368
0.000198498
0.00019862
0.000198733
0.000198836
0.000198931
0.000199018
0.000199096
0.000199167
0.000199229
0.000199284
0.000199331
0.000199371
0.000199403
0.000199427
0.000199445
0.000199455
0.000199458
0.000199454
0.000199442
0.000199423
0.000199397
0.000199364
0.000199323
0.000199274
0.000199219
0.000199155
0.000199084
0.000199005
0.000198918
0.000198823
0.000198719
0.000198607
0.000198486
0.000198356
0.000198216
0.000198067
0.000197908
0.000197738
0.000197559
0.000197368
0.000197165
0.000196951
0.000196724
0.000196484
0.000196231
0.000195964
0.000195682
0.000195384
0.00019507
0.000194738
0.000194389
0.00019402
0.000193632
0.000193222
0.00019279
0.000192333
0.000191851
0.000191342
0.000190806
0.000190238
0.000189638
0.000189003
0.00018833
0.000187617
0.000186862
0.000186061
0.000185211
0.000184308
0.000183347
0.000182325
0.000181236
0.000180074
0.000178835
0.000177512
0.000176098
0.000174585
0.000172965
0.000171228
0.000169366
0.000167368
0.000165221
0.000162914
0.000160434
0.000157766
0.000154895
0.000151805
0.00014848
0.000144903
0.000141055
0.00013692
0.00013248
0.000127717
0.000122614
0.000117158
0.000111337
0.000105141
9.85685e-05
9.16194e-05
8.43022e-05
7.66344e-05
6.86438e-05
6.03699e-05
5.18665e-05
4.3203e-05
3.44674e-05
2.57666e-05
1.72286e-05
9.0029e-06
1.26057e-06
-5.80725e-06
-1.19952e-05
-1.7091e-05
-2.08925e-05
-2.32333e-05
-2.40284e-05
-2.3354e-05
-2.15753e-05
-1.9455e-05
-0.000221782
-0.000223811
-0.000225094
-0.000225321
-0.000224352
-0.00022215
-0.000218782
-0.000214368
-0.000209058
-0.000203014
-0.000196394
-0.00018935
-0.000182019
-0.000174524
-0.000166972
-0.000159456
-0.000152047
-0.000144811
-0.000137793
-0.000131034
-0.000124557
-0.000118382
-0.000112521
-0.000106974
-0.000101746
-9.6828e-05
-9.22142e-05
-8.78935e-05
-8.38549e-05
-8.00841e-05
-7.65674e-05
-7.32906e-05
-7.02388e-05
-6.7398e-05
-6.47542e-05
-6.22933e-05
-6.00032e-05
-5.78711e-05
-5.58867e-05
-5.40373e-05
-5.23135e-05
-5.07074e-05
-4.92069e-05
-4.7807e-05
-4.64992e-05
-4.52749e-05
-4.413e-05
-4.30584e-05
-4.20532e-05
-4.11101e-05
-4.02253e-05
-3.93939e-05
-3.86118e-05
-3.78762e-05
-3.71838e-05
-3.65316e-05
-3.59167e-05
-3.53367e-05
-3.47893e-05
-3.42723e-05
-3.3784e-05
-3.33225e-05
-3.28864e-05
-3.24741e-05
-3.20841e-05
-3.17154e-05
-3.13665e-05
-3.10364e-05
-3.0724e-05
-3.04287e-05
-3.01498e-05
-2.98863e-05
-2.96374e-05
-2.94021e-05
-2.91801e-05
-2.8971e-05
-2.87743e-05
-2.85894e-05
-2.84154e-05
-2.82522e-05
-2.80997e-05
-2.79575e-05
-2.78253e-05
-2.77022e-05
-2.75881e-05
-2.7483e-05
-2.73868e-05
-2.72992e-05
-2.72198e-05
-2.71485e-05
-2.70854e-05
-2.70302e-05
-2.69824e-05
-2.6942e-05
-2.69093e-05
-2.68843e-05
-2.68668e-05
-2.68566e-05
-2.68537e-05
-2.6858e-05
-2.68696e-05
-2.68886e-05
-2.6915e-05
-2.69489e-05
-2.699e-05
-2.70386e-05
-2.70949e-05
-2.71591e-05
-2.72312e-05
-2.73111e-05
-2.73991e-05
-2.74956e-05
-2.76006e-05
-2.77142e-05
-2.78366e-05
-2.79682e-05
-2.81092e-05
-2.826e-05
-2.8421e-05
-2.85926e-05
-2.8775e-05
-2.89685e-05
-2.91734e-05
-2.93907e-05
-2.96208e-05
-2.9864e-05
-3.01209e-05
-3.03922e-05
-3.06787e-05
-3.09811e-05
-3.13e-05
-3.16366e-05
-3.1992e-05
-3.23671e-05
-3.27625e-05
-3.31794e-05
-3.36194e-05
-3.40843e-05
-3.45756e-05
-3.50947e-05
-3.56434e-05
-3.62234e-05
-3.68365e-05
-3.74852e-05
-3.81724e-05
-3.89011e-05
-3.96745e-05
-4.04955e-05
-4.13676e-05
-4.22945e-05
-4.32801e-05
-4.43291e-05
-4.54466e-05
-4.66383e-05
-4.79104e-05
-4.92697e-05
-5.07226e-05
-5.22769e-05
-5.39409e-05
-5.57236e-05
-5.76347e-05
-5.96844e-05
-6.18837e-05
-6.42445e-05
-6.67798e-05
-6.95028e-05
-7.24276e-05
-7.55688e-05
-7.89416e-05
-8.2562e-05
-8.64456e-05
-9.06078e-05
-9.50639e-05
-9.98276e-05
-0.000104912
-0.000110328
-0.000116083
-0.000122183
-0.000128627
-0.000135408
-0.000142516
-0.000149927
-0.000157614
-0.000165533
-0.00017363
-0.000181838
-0.000190072
-0.000198233
-0.000206203
-0.000213848
-0.000221017
-0.000227547
-0.000233266
-0.000237999
-0.000241587
-0.000243904
-0.000244882
-0.000244573
-0.000243138
-0.000240921
-0.000667069
-0.000669662
-0.000671103
-0.000671333
-0.000670411
-0.000668347
-0.00066522
-0.000661137
-0.000656229
-0.000650632
-0.000644487
-0.000637924
-0.000631067
-0.000624028
-0.000616904
-0.000609783
-0.000602734
-0.000595818
-0.000589082
-0.000582566
-0.000576297
-0.000570296
-0.000564576
-0.000559145
-0.000554005
-0.000549154
-0.000544588
-0.0005403
-0.000536278
-0.000532514
-0.000528994
-0.000525706
-0.000522637
-0.000519775
-0.000517106
-0.000514619
-0.0005123
-0.000510139
-0.000508125
-0.000506247
-0.000504495
-0.00050286
-0.000501334
-0.000499908
-0.000498575
-0.000497329
-0.000496163
-0.00049507
-0.000494046
-0.000493085
-0.000492184
-0.000491337
-0.000490541
-0.000489793
-0.000489088
-0.000488425
-0.000487799
-0.00048721
-0.000486653
-0.000486128
-0.000485633
-0.000485164
-0.000484722
-0.000484303
-0.000483908
-0.000483534
-0.00048318
-0.000482846
-0.00048253
-0.000482231
-0.000481948
-0.000481681
-0.00048143
-0.000481192
-0.000480967
-0.000480756
-0.000480557
-0.00048037
-0.000480194
-0.00048003
-0.000479875
-0.000479731
-0.000479598
-0.000479474
-0.000479359
-0.000479253
-0.000479156
-0.000479067
-0.000478987
-0.000478915
-0.000478851
-0.000478795
-0.000478747
-0.000478707
-0.000478674
-0.000478648
-0.00047863
-0.00047862
-0.000478617
-0.000478621
-0.000478633
-0.000478652
-0.000478679
-0.000478713
-0.000478755
-0.000478804
-0.00047886
-0.000478925
-0.000478997
-0.000479078
-0.000479167
-0.000479264
-0.00047937
-0.000479484
-0.000479608
-0.000479741
-0.000479884
-0.000480036
-0.000480198
-0.000480371
-0.000480556
-0.000480751
-0.000480958
-0.000481177
-0.00048141
-0.000481656
-0.000481915
-0.00048219
-0.00048248
-0.000482786
-0.000483109
-0.000483449
-0.000483809
-0.000484189
-0.00048459
-0.000485013
-0.000485459
-0.000485931
-0.000486429
-0.000486955
-0.000487512
-0.000488101
-0.000488724
-0.000489385
-0.000490084
-0.000490825
-0.000491611
-0.000492446
-0.000493333
-0.000494276
-0.000495281
-0.00049635
-0.000497489
-0.000498704
-0.0005
-0.000501385
-0.000502864
-0.000504447
-0.00050614
-0.000507953
-0.000509894
-0.000511976
-0.000514207
-0.0005166
-0.000519167
-0.00052192
-0.000524871
-0.000528036
-0.000531428
-0.000535059
-0.000538946
-0.0005431
-0.000547535
-0.000552263
-0.000557293
-0.000562634
-0.000568289
-0.000574261
-0.000580546
-0.000587135
-0.000594012
-0.000601155
-0.000608531
-0.000616098
-0.000623802
-0.000631577
-0.000639344
-0.000647009
-0.000654464
-0.000661588
-0.000668246
-0.000674294
-0.000679584
-0.000683967
-0.000687306
-0.000689486
-0.000690429
-0.000690128
-0.000688534
-0.000685708
-0.0013352
-0.00133843
-0.00134022
-0.00134064
-0.00133989
-0.00133803
-0.00133516
-0.0013314
-0.00132686
-0.00132167
-0.00131596
-0.00130984
-0.00130343
-0.00129682
-0.0012901
-0.00128337
-0.00127668
-0.00127009
-0.00126364
-0.00125739
-0.00125135
-0.00124555
-0.00124
-0.00123471
-0.00122969
-0.00122494
-0.00122046
-0.00121623
-0.00121226
-0.00120853
-0.00120504
-0.00120176
-0.0011987
-0.00119585
-0.00119317
-0.00119068
-0.00118835
-0.00118618
-0.00118415
-0.00118226
-0.00118049
-0.00117884
-0.0011773
-0.00117586
-0.00117451
-0.00117325
-0.00117207
-0.00117097
-0.00116993
-0.00116896
-0.00116804
-0.00116719
-0.00116638
-0.00116562
-0.00116491
-0.00116424
-0.00116361
-0.00116301
-0.00116245
-0.00116192
-0.00116142
-0.00116094
-0.00116049
-0.00116007
-0.00115967
-0.00115929
-0.00115894
-0.0011586
-0.00115828
-0.00115798
-0.00115769
-0.00115742
-0.00115717
-0.00115693
-0.0011567
-0.00115649
-0.00115629
-0.0011561
-0.00115593
-0.00115576
-0.0011556
-0.00115546
-0.00115532
-0.0011552
-0.00115508
-0.00115498
-0.00115488
-0.00115479
-0.00115471
-0.00115464
-0.00115457
-0.00115452
-0.00115447
-0.00115443
-0.00115439
-0.00115437
-0.00115435
-0.00115434
-0.00115434
-0.00115434
-0.00115435
-0.00115437
-0.0011544
-0.00115443
-0.00115447
-0.00115452
-0.00115458
-0.00115465
-0.00115472
-0.0011548
-0.00115489
-0.00115499
-0.00115509
-0.00115521
-0.00115533
-0.00115547
-0.00115561
-0.00115576
-0.00115593
-0.0011561
-0.00115629
-0.00115649
-0.00115669
-0.00115692
-0.00115715
-0.0011574
-0.00115766
-0.00115794
-0.00115823
-0.00115854
-0.00115886
-0.00115921
-0.00115957
-0.00115995
-0.00116036
-0.00116078
-0.00116124
-0.00116171
-0.00116222
-0.00116275
-0.00116331
-0.00116391
-0.00116454
-0.0011652
-0.00116591
-0.00116666
-0.00116746
-0.0011683
-0.0011692
-0.00117016
-0.00117117
-0.00117225
-0.00117341
-0.00117464
-0.00117595
-0.00117735
-0.00117884
-0.00118044
-0.00118215
-0.00118398
-0.00118594
-0.00118804
-0.00119029
-0.00119269
-0.00119527
-0.00119803
-0.00120098
-0.00120414
-0.00120752
-0.00121114
-0.00121499
-0.00121911
-0.00122349
-0.00122815
-0.00123309
-0.00123832
-0.00124384
-0.00124965
-0.00125575
-0.00126212
-0.00126874
-0.0012756
-0.00128265
-0.00128986
-0.00129717
-0.00130453
-0.00131185
-0.00131905
-0.00132602
-0.00133267
-0.00133886
-0.00134447
-0.00134937
-0.00135342
-0.00135648
-0.00135845
-0.00135921
-0.00135872
-0.00135675
-0.00135324
-0.00222449
-0.00222822
-0.00223034
-0.002231
-0.00223047
-0.00222886
-0.00222627
-0.00222283
-0.00221865
-0.00221385
-0.00220855
-0.00220286
-0.00219687
-0.00219068
-0.00218438
-0.00217803
-0.0021717
-0.00216544
-0.00215931
-0.00215334
-0.00214755
-0.00214197
-0.00213662
-0.0021315
-0.00212663
-0.00212201
-0.00211763
-0.0021135
-0.0021096
-0.00210593
-0.00210249
-0.00209926
-0.00209623
-0.00209339
-0.00209074
-0.00208826
-0.00208594
-0.00208377
-0.00208174
-0.00207985
-0.00207808
-0.00207643
-0.00207488
-0.00207343
-0.00207208
-0.00207081
-0.00206962
-0.00206851
-0.00206747
-0.00206649
-0.00206557
-0.00206471
-0.0020639
-0.00206313
-0.00206241
-0.00206174
-0.0020611
-0.0020605
-0.00205993
-0.0020594
-0.00205889
-0.00205842
-0.00205797
-0.00205754
-0.00205714
-0.00205676
-0.0020564
-0.00205606
-0.00205574
-0.00205543
-0.00205515
-0.00205488
-0.00205462
-0.00205438
-0.00205415
-0.00205394
-0.00205374
-0.00205355
-0.00205337
-0.0020532
-0.00205304
-0.0020529
-0.00205276
-0.00205264
-0.00205252
-0.00205241
-0.00205232
-0.00205223
-0.00205215
-0.00205207
-0.00205201
-0.00205195
-0.0020519
-0.00205186
-0.00205183
-0.0020518
-0.00205178
-0.00205177
-0.00205177
-0.00205178
-0.00205179
-0.00205181
-0.00205183
-0.00205187
-0.00205191
-0.00205196
-0.00205202
-0.00205208
-0.00205216
-0.00205224
-0.00205233
-0.00205242
-0.00205253
-0.00205265
-0.00205277
-0.00205291
-0.00205305
-0.00205321
-0.00205337
-0.00205354
-0.00205373
-0.00205393
-0.00205414
-0.00205436
-0.0020546
-0.00205485
-0.00205511
-0.00205539
-0.00205568
-0.00205599
-0.00205632
-0.00205667
-0.00205703
-0.00205742
-0.00205782
-0.00205825
-0.00205871
-0.00205919
-0.00205969
-0.00206023
-0.0020608
-0.0020614
-0.00206203
-0.00206271
-0.00206342
-0.00206417
-0.00206498
-0.00206583
-0.00206673
-0.00206769
-0.00206872
-0.00206981
-0.00207097
-0.0020722
-0.00207352
-0.00207493
-0.00207643
-0.00207804
-0.00207975
-0.00208159
-0.00208355
-0.00208565
-0.00208789
-0.00209029
-0.00209286
-0.00209561
-0.00209854
-0.00210168
-0.00210502
-0.00210859
-0.00211239
-0.00211644
-0.00212074
-0.00212529
-0.00213011
-0.0021352
-0.00214056
-0.00214619
-0.00215207
-0.00215819
-0.00216454
-0.00217109
-0.00217781
-0.00218465
-0.00219157
-0.0021985
-0.00220538
-0.00221212
-0.00221864
-0.00222482
-0.00223057
-0.00223576
-0.00224027
-0.00224398
-0.00224675
-0.00224847
-0.002249
-0.00224825
-0.00224593
-0.00224186
-0.00333226
-0.00333633
-0.00333871
-0.00333959
-0.00333929
-0.00333792
-0.00333562
-0.00333249
-0.00332867
-0.00332425
-0.00331935
-0.00331407
-0.0033085
-0.00330272
-0.00329682
-0.00329086
-0.00328489
-0.00327898
-0.00327317
-0.00326749
-0.00326197
-0.00325664
-0.00325151
-0.00324659
-0.00324189
-0.00323742
-0.00323317
-0.00322916
-0.00322536
-0.00322178
-0.00321841
-0.00321524
-0.00321226
-0.00320947
-0.00320685
-0.0032044
-0.0032021
-0.00319995
-0.00319794
-0.00319606
-0.0031943
-0.00319266
-0.00319111
-0.00318967
-0.00318832
-0.00318705
-0.00318587
-0.00318475
-0.00318371
-0.00318273
-0.00318181
-0.00318094
-0.00318013
-0.00317937
-0.00317864
-0.00317797
-0.00317733
-0.00317672
-0.00317616
-0.00317562
-0.00317511
-0.00317463
-0.00317418
-0.00317375
-0.00317335
-0.00317297
-0.00317261
-0.00317227
-0.00317195
-0.00317164
-0.00317135
-0.00317108
-0.00317083
-0.00317058
-0.00317036
-0.00317014
-0.00316994
-0.00316975
-0.00316957
-0.0031694
-0.00316925
-0.0031691
-0.00316896
-0.00316884
-0.00316872
-0.00316861
-0.00316852
-0.00316843
-0.00316834
-0.00316827
-0.00316821
-0.00316815
-0.0031681
-0.00316806
-0.00316803
-0.003168
-0.00316798
-0.00316797
-0.00316797
-0.00316797
-0.00316799
-0.003168
-0.00316803
-0.00316807
-0.00316811
-0.00316816
-0.00316821
-0.00316828
-0.00316835
-0.00316844
-0.00316853
-0.00316862
-0.00316873
-0.00316885
-0.00316897
-0.00316911
-0.00316925
-0.00316941
-0.00316957
-0.00316975
-0.00316993
-0.00317013
-0.00317034
-0.00317057
-0.0031708
-0.00317105
-0.00317132
-0.0031716
-0.00317189
-0.0031722
-0.00317253
-0.00317288
-0.00317324
-0.00317363
-0.00317404
-0.00317447
-0.00317493
-0.00317541
-0.00317592
-0.00317645
-0.00317702
-0.00317763
-0.00317826
-0.00317894
-0.00317965
-0.00318041
-0.00318121
-0.00318207
-0.00318297
-0.00318394
-0.00318496
-0.00318605
-0.00318722
-0.00318845
-0.00318977
-0.00319118
-0.00319268
-0.00319428
-0.00319599
-0.00319782
-0.00319977
-0.00320185
-0.00320408
-0.00320646
-0.003209
-0.00321171
-0.00321461
-0.00321769
-0.00322098
-0.00322448
-0.0032282
-0.00323216
-0.00323634
-0.00324077
-0.00324545
-0.00325037
-0.00325554
-0.00326094
-0.00326658
-0.00327244
-0.0032785
-0.00328472
-0.00329109
-0.00329756
-0.00330408
-0.00331059
-0.00331703
-0.00332333
-0.0033294
-0.00333514
-0.00334046
-0.00334525
-0.00334938
-0.00335275
-0.00335523
-0.00335668
-0.00335697
-0.00335598
-0.00335337
-0.00334893
-0.00465503
-0.00465926
-0.00466181
-0.00466287
-0.00466278
-0.00466165
-0.00465962
-0.0046568
-0.00465332
-0.00464927
-0.00464476
-0.00463988
-0.00463472
-0.00462935
-0.00462384
-0.00461827
-0.00461268
-0.00460712
-0.00460164
-0.00459627
-0.00459104
-0.00458597
-0.00458107
-0.00457637
-0.00457187
-0.00456757
-0.00456348
-0.0045596
-0.00455593
-0.00455245
-0.00454918
-0.00454609
-0.00454318
-0.00454045
-0.00453789
-0.00453548
-0.00453323
-0.00453111
-0.00452913
-0.00452727
-0.00452553
-0.0045239
-0.00452238
-0.00452094
-0.0045196
-0.00451835
-0.00451717
-0.00451606
-0.00451502
-0.00451404
-0.00451313
-0.00451226
-0.00451145
-0.00451069
-0.00450997
-0.00450929
-0.00450865
-0.00450805
-0.00450748
-0.00450695
-0.00450644
-0.00450596
-0.00450551
-0.00450508
-0.00450468
-0.0045043
-0.00450394
-0.0045036
-0.00450328
-0.00450297
-0.00450268
-0.00450241
-0.00450215
-0.00450191
-0.00450168
-0.00450147
-0.00450127
-0.00450108
-0.0045009
-0.00450073
-0.00450057
-0.00450043
-0.00450029
-0.00450017
-0.00450005
-0.00449994
-0.00449984
-0.00449975
-0.00449967
-0.0044996
-0.00449953
-0.00449948
-0.00449943
-0.00449939
-0.00449935
-0.00449933
-0.00449931
-0.0044993
-0.0044993
-0.0044993
-0.00449931
-0.00449933
-0.00449936
-0.00449939
-0.00449944
-0.00449949
-0.00449954
-0.00449961
-0.00449968
-0.00449976
-0.00449985
-0.00449995
-0.00450006
-0.00450018
-0.0045003
-0.00450044
-0.00450058
-0.00450073
-0.0045009
-0.00450108
-0.00450126
-0.00450146
-0.00450167
-0.0045019
-0.00450213
-0.00450238
-0.00450265
-0.00450292
-0.00450322
-0.00450353
-0.00450386
-0.00450421
-0.00450457
-0.00450496
-0.00450537
-0.0045058
-0.00450626
-0.00450674
-0.00450725
-0.00450778
-0.00450835
-0.00450895
-0.00450959
-0.00451026
-0.00451098
-0.00451174
-0.00451254
-0.00451339
-0.00451429
-0.00451526
-0.00451628
-0.00451736
-0.00451852
-0.00451975
-0.00452106
-0.00452246
-0.00452395
-0.00452554
-0.00452723
-0.00452904
-0.00453097
-0.00453302
-0.00453522
-0.00453756
-0.00454006
-0.00454272
-0.00454556
-0.00454858
-0.00455179
-0.0045552
-0.00455882
-0.00456265
-0.0045667
-0.00457098
-0.00457548
-0.00458021
-0.00458517
-0.00459034
-0.00459572
-0.00460129
-0.00460703
-0.00461292
-0.00461892
-0.00462501
-0.00463112
-0.00463722
-0.00464323
-0.00464909
-0.00465471
-0.00466003
-0.00466493
-0.00466932
-0.00467309
-0.00467613
-0.00467831
-0.00467952
-0.00467959
-0.0046784
-0.00467561
-0.00467098
-0.0061886
-0.00619284
-0.00619546
-0.00619665
-0.00619672
-0.00619581
-0.00619403
-0.00619152
-0.00618836
-0.00618468
-0.00618055
-0.00617606
-0.0061713
-0.00616633
-0.00616122
-0.00615604
-0.00615082
-0.00614563
-0.00614049
-0.00613544
-0.0061305
-0.00612571
-0.00612107
-0.0061166
-0.00611232
-0.00610822
-0.0061043
-0.00610058
-0.00609705
-0.0060937
-0.00609053
-0.00608755
-0.00608473
-0.00608208
-0.00607958
-0.00607724
-0.00607503
-0.00607296
-0.00607102
-0.0060692
-0.00606749
-0.00606589
-0.00606439
-0.00606298
-0.00606165
-0.00606041
-0.00605924
-0.00605815
-0.00605712
-0.00605615
-0.00605524
-0.00605439
-0.00605358
-0.00605282
-0.00605211
-0.00605144
-0.0060508
-0.0060502
-0.00604964
-0.0060491
-0.0060486
-0.00604812
-0.00604767
-0.00604725
-0.00604685
-0.00604646
-0.00604611
-0.00604577
-0.00604544
-0.00604514
-0.00604485
-0.00604458
-0.00604433
-0.00604409
-0.00604386
-0.00604364
-0.00604344
-0.00604325
-0.00604307
-0.00604291
-0.00604275
-0.0060426
-0.00604247
-0.00604234
-0.00604223
-0.00604212
-0.00604202
-0.00604193
-0.00604185
-0.00604178
-0.00604171
-0.00604166
-0.00604161
-0.00604157
-0.00604153
-0.00604151
-0.00604149
-0.00604148
-0.00604147
-0.00604148
-0.00604149
-0.00604151
-0.00604154
-0.00604157
-0.00604161
-0.00604166
-0.00604172
-0.00604179
-0.00604186
-0.00604194
-0.00604203
-0.00604213
-0.00604224
-0.00604235
-0.00604248
-0.00604261
-0.00604276
-0.00604291
-0.00604308
-0.00604325
-0.00604344
-0.00604364
-0.00604385
-0.00604407
-0.0060443
-0.00604455
-0.00604482
-0.0060451
-0.00604539
-0.0060457
-0.00604603
-0.00604638
-0.00604674
-0.00604713
-0.00604753
-0.00604796
-0.00604842
-0.0060489
-0.0060494
-0.00604994
-0.00605051
-0.0060511
-0.00605174
-0.00605241
-0.00605312
-0.00605387
-0.00605467
-0.00605552
-0.00605641
-0.00605737
-0.00605838
-0.00605946
-0.0060606
-0.00606182
-0.00606312
-0.0060645
-0.00606597
-0.00606753
-0.0060692
-0.00607098
-0.00607287
-0.00607489
-0.00607704
-0.00607933
-0.00608177
-0.00608437
-0.00608713
-0.00609006
-0.00609317
-0.00609647
-0.00609997
-0.00610366
-0.00610756
-0.00611166
-0.00611597
-0.00612049
-0.00612521
-0.00613012
-0.00613522
-0.00614049
-0.0061459
-0.00615145
-0.00615708
-0.00616277
-0.00616848
-0.00617415
-0.00617973
-0.00618516
-0.00619035
-0.00619524
-0.00619974
-0.00620374
-0.00620716
-0.00620989
-0.0062118
-0.00621277
-0.00621266
-0.00621134
-0.00620847
-0.00620383
-0.00792812
-0.00793224
-0.00793484
-0.00793609
-0.0079363
-0.00793558
-0.00793404
-0.0079318
-0.00792897
-0.00792563
-0.00792187
-0.00791777
-0.0079134
-0.00790883
-0.00790412
-0.00789933
-0.00789449
-0.00788966
-0.00788487
-0.00788015
-0.00787553
-0.00787103
-0.00786666
-0.00786244
-0.00785838
-0.00785449
-0.00785077
-0.00784723
-0.00784385
-0.00784065
-0.00783761
-0.00783474
-0.00783203
-0.00782947
-0.00782706
-0.00782479
-0.00782265
-0.00782064
-0.00781875
-0.00781697
-0.0078153
-0.00781374
-0.00781227
-0.00781088
-0.00780958
-0.00780837
-0.00780722
-0.00780614
-0.00780513
-0.00780417
-0.00780328
-0.00780243
-0.00780164
-0.00780089
-0.00780018
-0.00779951
-0.00779888
-0.00779829
-0.00779773
-0.0077972
-0.0077967
-0.00779623
-0.00779578
-0.00779536
-0.00779496
-0.00779458
-0.00779422
-0.00779389
-0.00779357
-0.00779326
-0.00779298
-0.00779271
-0.00779245
-0.00779221
-0.00779199
-0.00779177
-0.00779157
-0.00779138
-0.00779121
-0.00779104
-0.00779089
-0.00779074
-0.00779061
-0.00779048
-0.00779036
-0.00779026
-0.00779016
-0.00779007
-0.00778999
-0.00778992
-0.00778985
-0.0077898
-0.00778975
-0.00778971
-0.00778967
-0.00778965
-0.00778963
-0.00778962
-0.00778962
-0.00778962
-0.00778963
-0.00778965
-0.00778968
-0.00778971
-0.00778975
-0.0077898
-0.00778986
-0.00778993
-0.00779
-0.00779008
-0.00779017
-0.00779027
-0.00779037
-0.00779049
-0.00779062
-0.00779075
-0.00779089
-0.00779105
-0.00779121
-0.00779139
-0.00779157
-0.00779177
-0.00779198
-0.0077922
-0.00779243
-0.00779268
-0.00779294
-0.00779322
-0.00779351
-0.00779382
-0.00779415
-0.00779449
-0.00779486
-0.00779524
-0.00779565
-0.00779607
-0.00779653
-0.007797
-0.0077975
-0.00779804
-0.0077986
-0.00779919
-0.00779982
-0.00780048
-0.00780119
-0.00780193
-0.00780272
-0.00780356
-0.00780445
-0.00780539
-0.00780639
-0.00780745
-0.00780858
-0.00780978
-0.00781105
-0.00781241
-0.00781385
-0.00781538
-0.00781702
-0.00781875
-0.0078206
-0.00782257
-0.00782466
-0.00782689
-0.00782926
-0.00783177
-0.00783444
-0.00783727
-0.00784027
-0.00784344
-0.00784679
-0.00785033
-0.00785405
-0.00785797
-0.00786207
-0.00786635
-0.00787082
-0.00787546
-0.00788026
-0.00788521
-0.00789029
-0.00789547
-0.00790073
-0.00790602
-0.00791132
-0.00791657
-0.00792172
-0.00792671
-0.00793148
-0.00793596
-0.00794005
-0.00794369
-0.00794677
-0.00794919
-0.00795085
-0.00795163
-0.00795138
-0.00794999
-0.00794713
-0.00794261
-0.00986817
-0.00987206
-0.00987456
-0.00987583
-0.00987613
-0.00987556
-0.00987424
-0.00987227
-0.00986974
-0.00986674
-0.00986334
-0.00985962
-0.00985564
-0.00985147
-0.00984715
-0.00984274
-0.00983829
-0.00983383
-0.00982939
-0.00982501
-0.00982071
-0.00981651
-0.00981243
-0.00980847
-0.00980466
-0.00980099
-0.00979748
-0.00979412
-0.00979092
-0.00978788
-0.00978499
-0.00978225
-0.00977965
-0.0097772
-0.00977488
-0.00977269
-0.00977063
-0.00976869
-0.00976686
-0.00976514
-0.00976353
-0.009762
-0.00976057
-0.00975922
-0.00975796
-0.00975677
-0.00975564
-0.00975459
-0.0097536
-0.00975266
-0.00975178
-0.00975095
-0.00975017
-0.00974943
-0.00974873
-0.00974808
-0.00974746
-0.00974687
-0.00974632
-0.00974579
-0.0097453
-0.00974483
-0.00974439
-0.00974397
-0.00974358
-0.0097432
-0.00974285
-0.00974251
-0.0097422
-0.0097419
-0.00974161
-0.00974135
-0.00974109
-0.00974086
-0.00974063
-0.00974042
-0.00974022
-0.00974003
-0.00973986
-0.00973969
-0.00973954
-0.00973939
-0.00973926
-0.00973913
-0.00973902
-0.00973891
-0.00973882
-0.00973873
-0.00973865
-0.00973857
-0.00973851
-0.00973845
-0.00973841
-0.00973837
-0.00973833
-0.00973831
-0.00973829
-0.00973828
-0.00973828
-0.00973828
-0.00973829
-0.00973831
-0.00973834
-0.00973837
-0.00973841
-0.00973846
-0.00973852
-0.00973858
-0.00973866
-0.00973874
-0.00973883
-0.00973892
-0.00973903
-0.00973915
-0.00973927
-0.0097394
-0.00973955
-0.0097397
-0.00973986
-0.00974004
-0.00974022
-0.00974042
-0.00974062
-0.00974084
-0.00974108
-0.00974132
-0.00974158
-0.00974186
-0.00974215
-0.00974246
-0.00974278
-0.00974312
-0.00974348
-0.00974386
-0.00974426
-0.00974469
-0.00974513
-0.0097456
-0.0097461
-0.00974663
-0.00974718
-0.00974777
-0.00974839
-0.00974905
-0.00974974
-0.00975047
-0.00975125
-0.00975208
-0.00975295
-0.00975387
-0.00975486
-0.0097559
-0.009757
-0.00975818
-0.00975942
-0.00976075
-0.00976215
-0.00976365
-0.00976524
-0.00976693
-0.00976872
-0.00977063
-0.00977266
-0.00977481
-0.00977709
-0.00977951
-0.00978207
-0.00978478
-0.00978765
-0.00979068
-0.00979388
-0.00979724
-0.00980077
-0.00980448
-0.00980835
-0.00981239
-0.00981659
-0.00982094
-0.00982544
-0.00983006
-0.00983479
-0.0098396
-0.00984447
-0.00984937
-0.00985425
-0.00985908
-0.0098638
-0.00986837
-0.00987272
-0.00987679
-0.0098805
-0.00988377
-0.00988653
-0.00988867
-0.0098901
-0.0098907
-0.00989036
-0.00988895
-0.0098862
-0.00988191
-0.0120028
-0.0120064
-0.0120087
-0.01201
-0.0120103
-0.0120099
-0.0120088
-0.012007
-0.0120048
-0.0120021
-0.0119991
-0.0119957
-0.0119921
-0.0119883
-0.0119844
-0.0119804
-0.0119763
-0.0119722
-0.0119682
-0.0119641
-0.0119601
-0.0119563
-0.0119525
-0.0119488
-0.0119452
-0.0119418
-0.0119385
-0.0119353
-0.0119323
-0.0119295
-0.0119267
-0.0119241
-0.0119217
-0.0119193
-0.0119171
-0.011915
-0.011913
-0.0119112
-0.0119094
-0.0119078
-0.0119062
-0.0119047
-0.0119034
-0.0119021
-0.0119008
-0.0118997
-0.0118986
-0.0118975
-0.0118966
-0.0118957
-0.0118948
-0.011894
-0.0118932
-0.0118925
-0.0118918
-0.0118912
-0.0118906
-0.01189
-0.0118894
-0.0118889
-0.0118884
-0.011888
-0.0118875
-0.0118871
-0.0118867
-0.0118864
-0.011886
-0.0118857
-0.0118854
-0.0118851
-0.0118848
-0.0118845
-0.0118843
-0.0118841
-0.0118838
-0.0118836
-0.0118834
-0.0118832
-0.0118831
-0.0118829
-0.0118828
-0.0118826
-0.0118825
-0.0118824
-0.0118822
-0.0118821
-0.011882
-0.0118819
-0.0118819
-0.0118818
-0.0118817
-0.0118817
-0.0118816
-0.0118816
-0.0118816
-0.0118815
-0.0118815
-0.0118815
-0.0118815
-0.0118815
-0.0118815
-0.0118815
-0.0118816
-0.0118816
-0.0118816
-0.0118817
-0.0118817
-0.0118818
-0.0118819
-0.011882
-0.011882
-0.0118821
-0.0118823
-0.0118824
-0.0118825
-0.0118826
-0.0118828
-0.0118829
-0.0118831
-0.0118832
-0.0118834
-0.0118836
-0.0118838
-0.011884
-0.0118843
-0.0118845
-0.0118848
-0.0118851
-0.0118853
-0.0118856
-0.011886
-0.0118863
-0.0118867
-0.011887
-0.0118874
-0.0118878
-0.0118883
-0.0118888
-0.0118892
-0.0118898
-0.0118903
-0.0118909
-0.0118915
-0.0118921
-0.0118928
-0.0118935
-0.0118943
-0.0118951
-0.011896
-0.0118969
-0.0118978
-0.0118989
-0.0118999
-0.0119011
-0.0119023
-0.0119036
-0.0119049
-0.0119064
-0.0119079
-0.0119096
-0.0119113
-0.0119131
-0.0119151
-0.0119171
-0.0119193
-0.0119216
-0.0119241
-0.0119267
-0.0119294
-0.0119323
-0.0119353
-0.0119385
-0.0119418
-0.0119453
-0.0119489
-0.0119527
-0.0119566
-0.0119607
-0.0119648
-0.0119691
-0.0119735
-0.0119779
-0.0119824
-0.0119869
-0.0119914
-0.0119958
-0.0120001
-0.0120042
-0.0120082
-0.0120118
-0.0120152
-0.0120181
-0.0120205
-0.0120224
-0.0120236
-0.0120241
-0.0120237
-0.0120223
-0.0120198
-0.0120158
-0.0143256
-0.0143288
-0.014331
-0.0143321
-0.0143325
-0.0143322
-0.0143312
-0.0143297
-0.0143278
-0.0143254
-0.0143227
-0.0143197
-0.0143165
-0.0143131
-0.0143096
-0.0143059
-0.0143022
-0.0142985
-0.0142948
-0.0142911
-0.0142875
-0.0142839
-0.0142804
-0.014277
-0.0142737
-0.0142705
-0.0142675
-0.0142645
-0.0142617
-0.014259
-0.0142564
-0.014254
-0.0142517
-0.0142495
-0.0142474
-0.0142454
-0.0142435
-0.0142417
-0.01424
-0.0142385
-0.014237
-0.0142356
-0.0142342
-0.014233
-0.0142318
-0.0142307
-0.0142296
-0.0142286
-0.0142277
-0.0142268
-0.0142259
-0.0142252
-0.0142244
-0.0142237
-0.014223
-0.0142224
-0.0142218
-0.0142212
-0.0142207
-0.0142202
-0.0142197
-0.0142193
-0.0142188
-0.0142184
-0.0142181
-0.0142177
-0.0142174
-0.014217
-0.0142167
-0.0142164
-0.0142161
-0.0142159
-0.0142156
-0.0142154
-0.0142152
-0.014215
-0.0142148
-0.0142146
-0.0142144
-0.0142143
-0.0142141
-0.014214
-0.0142138
-0.0142137
-0.0142136
-0.0142135
-0.0142134
-0.0142133
-0.0142132
-0.0142132
-0.0142131
-0.0142131
-0.014213
-0.014213
-0.0142129
-0.0142129
-0.0142129
-0.0142129
-0.0142129
-0.0142129
-0.0142129
-0.0142129
-0.0142129
-0.014213
-0.014213
-0.0142131
-0.0142131
-0.0142132
-0.0142133
-0.0142133
-0.0142134
-0.0142135
-0.0142136
-0.0142137
-0.0142139
-0.014214
-0.0142141
-0.0142143
-0.0142144
-0.0142146
-0.0142148
-0.014215
-0.0142152
-0.0142154
-0.0142156
-0.0142159
-0.0142161
-0.0142164
-0.0142167
-0.014217
-0.0142173
-0.0142176
-0.014218
-0.0142183
-0.0142187
-0.0142192
-0.0142196
-0.01422
-0.0142205
-0.014221
-0.0142216
-0.0142221
-0.0142227
-0.0142234
-0.014224
-0.0142247
-0.0142255
-0.0142263
-0.0142271
-0.014228
-0.0142289
-0.0142299
-0.014231
-0.0142321
-0.0142332
-0.0142345
-0.0142358
-0.0142372
-0.0142387
-0.0142402
-0.0142419
-0.0142437
-0.0142455
-0.0142475
-0.0142496
-0.0142518
-0.0142541
-0.0142565
-0.0142591
-0.0142618
-0.0142646
-0.0142676
-0.0142707
-0.014274
-0.0142774
-0.0142809
-0.0142845
-0.0142883
-0.0142921
-0.014296
-0.0143001
-0.0143041
-0.0143082
-0.0143123
-0.0143164
-0.0143203
-0.0143242
-0.014328
-0.0143315
-0.0143348
-0.0143377
-0.0143403
-0.0143425
-0.0143441
-0.0143452
-0.0143455
-0.0143451
-0.0143438
-0.0143414
-0.0143378
-0.0168298
-0.0168326
-0.0168345
-0.0168356
-0.016836
-0.0168357
-0.0168349
-0.0168337
-0.0168319
-0.0168299
-0.0168275
-0.0168249
-0.016822
-0.016819
-0.0168158
-0.0168126
-0.0168093
-0.0168059
-0.0168026
-0.0167992
-0.0167959
-0.0167927
-0.0167895
-0.0167864
-0.0167833
-0.0167804
-0.0167776
-0.0167749
-0.0167722
-0.0167697
-0.0167673
-0.0167651
-0.0167629
-0.0167608
-0.0167588
-0.016757
-0.0167552
-0.0167535
-0.0167519
-0.0167504
-0.016749
-0.0167476
-0.0167464
-0.0167452
-0.016744
-0.0167429
-0.0167419
-0.016741
-0.0167401
-0.0167392
-0.0167384
-0.0167376