/*--------------------------------*- C++ -*----------------------------------*\
| =========                 |                                                 |
| \\      /  F ield         | OpenFOAM: The Open Source CFD Toolbox           |
|  \\    /   O peration     | Version:  2412                                  |
|   \\  /    A nd           | Website:  www.openfoam.com                      |
|    \\/     M anipulation  |                                                 |
\*---------------------------------------------------------------------------*/
FoamFile
{
    version     2.0;
    format      ascii;
    arch        "LSB;label=32;scalar=64";
    class       volScalarField;
    location    "600";
    object      p_rgh;
}
// * * * * * * * * * * * * * * * * * * * * * * * * * * * * * * * * * * * * * //

dimensions      [0 2 -2 0 0 0 0];

internalField   nonuniform List<scalar> 
40000
(
5.60017e-05
5.41321e-05
5.25887e-05
5.20815e-05
5.29352e-05
5.52092e-05
5.88193e-05
6.36088e-05
6.9387e-05
7.59592e-05
8.31345e-05
9.07378e-05
9.86131e-05
0.000106622
0.000114651
0.0001226
0.000130394
0.000137968
0.000145274
0.000152276
0.000158953
0.000165289
0.000171276
0.000176915
0.000182208
0.000187168
0.000191802
0.000196126
0.000200154
0.000203904
0.00020739
0.00021063
0.00021364
0.000216436
0.000219032
0.000221445
0.000223687
0.00022577
0.000227709
0.000229513
0.000231194
0.000232759
0.00023422
0.000235584
0.000236858
0.000238049
0.000239164
0.000240208
0.000241188
0.000242107
0.000242969
0.00024378
0.000244543
0.000245261
0.000245937
0.000246575
0.000247176
0.000247744
0.000248279
0.000248786
0.000249264
0.000249716
0.000250144
0.000250549
0.000250932
0.000251294
0.000251637
0.000251961
0.000252268
0.000252559
0.000252833
0.000253093
0.000253338
0.00025357
0.000253788
0.000253994
0.000254188
0.000254371
0.000254543
0.000254703
0.000254854
0.000254994
0.000255125
0.000255246
0.000255359
0.000255462
0.000255557
0.000255644
0.000255722
0.000255793
0.000255855
0.00025591
0.000255957
0.000255997
0.000256029
0.000256053
0.000256071
0.000256081
0.000256084
0.00025608
0.000256068
0.000256049
0.000256023
0.00025599
0.000255949
0.000255901
0.000255845
0.000255781
0.00025571
0.000255631
0.000255544
0.000255449
0.000255345
0.000255233
0.000255112
0.000254982
0.000254842
0.000254693
0.000254534
0.000254365
0.000254185
0.000253994
0.000253792
0.000253577
0.00025335
0.000253111
0.000252858
0.00025259
0.000252308
0.00025201
0.000251696
0.000251364
0.000251015
0.000250646
0.000250258
0.000249848
0.000249416
0.000248959
0.000248477
0.000247969
0.000247432
0.000246864
0.000246264
0.000245629
0.000244956
0.000244243
0.000243488
0.000242687
0.000241836
0.000240933
0.000239972
0.00023895
0.000237861
0.000236699
0.000235459
0.000234135
0.000232721
0.000231207
0.000229586
0.000227849
0.000225986
0.000223986
0.000221838
0.00021953
0.000217047
0.000214377
0.000211503
0.000208411
0.000205083
0.000201501
0.00019765
0.00019351
0.000189064
0.000184295
0.000179185
0.000173722
0.000167892
0.000161687
0.000155104
0.000148144
0.000140814
0.000133132
0.000125127
0.000116836
0.000108315
9.96321e-05
9.08755e-05
8.2152e-05
7.35896e-05
6.53378e-05
5.75675e-05
5.04698e-05
4.425e-05
3.91204e-05
3.52832e-05
3.29047e-05
3.20699e-05
3.27029e-05
3.44385e-05
3.65146e-05
0.000281561
0.000279968
0.000279068
0.000279203
0.000280513
0.000283036
0.000286708
0.000291407
0.000296984
0.000303278
0.000310132
0.000317395
0.000324929
0.000332612
0.000340338
0.000348015
0.000355571
0.000362943
0.000370085
0.000376958
0.000383538
0.000389806
0.000395753
0.000401376
0.000406673
0.000411653
0.000416322
0.000420692
0.000424775
0.000428585
0.000432136
0.000435443
0.000438522
0.000441386
0.00044405
0.000446529
0.000448835
0.00045098
0.000452976
0.000454836
0.000456568
0.000458181
0.000459688
0.000461094
0.000462406
0.000463634
0.000464782
0.000465856
0.000466864
0.000467809
0.000468695
0.000469528
0.000470311
0.000471047
0.00047174
0.000472393
0.000473009
0.000473589
0.000474137
0.000474654
0.000475142
0.000475604
0.00047604
0.000476453
0.000476843
0.000477211
0.00047756
0.000477891
0.000478203
0.000478498
0.000478777
0.000479041
0.00047929
0.000479525
0.000479747
0.000479956
0.000480153
0.000480338
0.000480511
0.000480675
0.000480827
0.000480969
0.000481102
0.000481225
0.000481339
0.000481444
0.00048154
0.000481628
0.000481707
0.000481778
0.000481841
0.000481897
0.000481944
0.000481985
0.000482018
0.000482043
0.00048206
0.00048207
0.000482073
0.000482069
0.000482057
0.000482038
0.000482012
0.000481978
0.000481937
0.000481888
0.000481832
0.000481768
0.000481696
0.000481616
0.000481528
0.000481431
0.000481326
0.000481213
0.00048109
0.000480959
0.000480818
0.000480667
0.000480506
0.000480334
0.000480152
0.000479959
0.000479754
0.000479536
0.000479306
0.000479063
0.000478806
0.000478535
0.000478248
0.000477946
0.000477627
0.00047729
0.000476935
0.00047656
0.000476164
0.000475747
0.000475307
0.000474842
0.000474351
0.000473832
0.000473283
0.000472702
0.000472089
0.00047144
0.000470752
0.000470023
0.000469249
0.000468427
0.000467553
0.000466625
0.000465638
0.000464587
0.000463467
0.000462272
0.000460996
0.000459633
0.000458175
0.000456614
0.000454943
0.000453153
0.000451232
0.000449171
0.000446959
0.000444583
0.00044203
0.000439288
0.00043634
0.000433173
0.000429771
0.000426117
0.000422195
0.00041799
0.000413485
0.000408667
0.000403522
0.000398038
0.000392207
0.000386023
0.000379487
0.000372603
0.000365383
0.000357848
0.000350026
0.00034196
0.000333703
0.000325321
0.000316898
0.000308534
0.000300345
0.000292466
0.000285046
0.000278248
0.000272244
0.000267209
0.0002633
0.000260645
0.000259311
0.000259247
0.000260294
0.000262111
0.000728023
0.000726608
0.000726221
0.000726985
0.000728847
0.000731797
0.00073576
0.000740629
0.000746275
0.000752563
0.000759354
0.000766518
0.000773935
0.000781493
0.000789097
0.000796662
0.000804118
0.000811409
0.000818487
0.000825316
0.000831871
0.00083813
0.000844084
0.000849727
0.000855057
0.000860078
0.000864797
0.000869222
0.000873365
0.000877237
0.000880852
0.000884224
0.000887367
0.000890294
0.000893019
0.000895556
0.000897917
0.000900115
0.000902162
0.000904068
0.000905843
0.000907498
0.000909042
0.000910482
0.000911828
0.000913084
0.000914259
0.00091536
0.00091639
0.000917355
0.000918261
0.000919111
0.00091991
0.000920661
0.000921368
0.000922033
0.000922659
0.00092325
0.000923807
0.000924333
0.000924829
0.000925298
0.000925741
0.000926159
0.000926555
0.000926929
0.000927283
0.000927617
0.000927933
0.000928232
0.000928515
0.000928782
0.000929034
0.000929271
0.000929496
0.000929708
0.000929906
0.000930093
0.000930269
0.000930433
0.000930588
0.000930732
0.000930865
0.00093099
0.000931104
0.00093121
0.000931308
0.000931396
0.000931476
0.000931548
0.000931612
0.000931668
0.000931716
0.000931756
0.000931789
0.000931815
0.000931833
0.000931843
0.000931846
0.000931842
0.00093183
0.000931811
0.000931784
0.00093175
0.000931708
0.000931659
0.000931603
0.000931538
0.000931466
0.000931385
0.000931296
0.000931199
0.000931093
0.000930979
0.000930855
0.000930722
0.00093058
0.000930427
0.000930265
0.000930092
0.000929908
0.000929712
0.000929505
0.000929286
0.000929053
0.000928808
0.000928548
0.000928273
0.000927983
0.000927677
0.000927354
0.000927014
0.000926654
0.000926274
0.000925873
0.00092545
0.000925003
0.000924532
0.000924033
0.000923507
0.000922949
0.00092236
0.000921735
0.000921073
0.000920373
0.00091963
0.000918841
0.000918004
0.000917114
0.000916166
0.000915157
0.000914082
0.000912936
0.000911713
0.000910406
0.00090901
0.000907517
0.000905918
0.000904206
0.00090237
0.000900402
0.00089829
0.000896023
0.000893589
0.000890974
0.000888167
0.000885152
0.000881916
0.000878443
0.000874719
0.000870727
0.000866454
0.000861885
0.000857007
0.000851809
0.000846281
0.000840418
0.000834214
0.000827673
0.000820802
0.000813614
0.00080613
0.000798381
0.000790407
0.000782261
0.000774005
0.000765719
0.000757494
0.000749435
0.000741665
0.000734314
0.000727526
0.000721449
0.00071623
0.000712007
0.000708892
0.000706966
0.000706235
0.000706752
0.000708456
0.00139025
0.00138928
0.00138953
0.00139103
0.0013936
0.00139718
0.00140167
0.00140695
0.00141292
0.00141945
0.00142642
0.00143371
0.00144121
0.00144882
0.00145647
0.00146406
0.00147155
0.00147886
0.00148597
0.00149283
0.00149943
0.00150573
0.00151173
0.00151743
0.00152282
0.0015279
0.00153268
0.00153717
0.00154138
0.00154532
0.001549
0.00155243
0.00155563
0.00155862
0.0015614
0.00156399
0.0015664
0.00156865
0.00157073
0.00157268
0.00157449
0.00157618
0.00157776
0.00157923
0.0015806
0.00158188
0.00158308
0.0015842
0.00158525
0.00158623
0.00158715
0.00158801
0.00158883
0.00158959
0.0015903
0.00159098
0.00159161
0.00159221
0.00159278
0.00159331
0.00159381
0.00159429
0.00159473
0.00159516
0.00159556
0.00159594
0.00159629
0.00159663
0.00159695
0.00159725
0.00159754
0.00159781
0.00159806
0.0015983
0.00159853
0.00159874
0.00159894
0.00159913
0.0015993
0.00159947
0.00159963
0.00159977
0.00159991
0.00160003
0.00160015
0.00160025
0.00160035
0.00160044
0.00160052
0.00160059
0.00160066
0.00160071
0.00160076
0.0016008
0.00160084
0.00160086
0.00160088
0.00160089
0.00160089
0.00160089
0.00160088
0.00160086
0.00160083
0.0016008
0.00160076
0.00160071
0.00160065
0.00160058
0.00160051
0.00160043
0.00160034
0.00160024
0.00160014
0.00160002
0.0015999
0.00159976
0.00159962
0.00159947
0.0015993
0.00159913
0.00159894
0.00159875
0.00159854
0.00159832
0.00159808
0.00159783
0.00159757
0.00159729
0.001597
0.00159669
0.00159637
0.00159602
0.00159566
0.00159528
0.00159487
0.00159445
0.00159399
0.00159352
0.00159301
0.00159248
0.00159192
0.00159132
0.00159069
0.00159002
0.00158931
0.00158855
0.00158775
0.0015869
0.001586
0.00158503
0.00158401
0.00158292
0.00158175
0.0015805
0.00157917
0.00157775
0.00157623
0.0015746
0.00157285
0.00157097
0.00156896
0.00156681
0.00156449
0.00156201
0.00155934
0.00155647
0.0015534
0.0015501
0.00154656
0.00154276
0.0015387
0.00153436
0.00152972
0.00152477
0.0015195
0.00151391
0.00150798
0.00150172
0.00149513
0.00148821
0.00148098
0.00147346
0.00146569
0.00145769
0.00144951
0.00144123
0.0014329
0.00142462
0.00141647
0.00140857
0.00140103
0.00139398
0.00138756
0.00138189
0.00137711
0.00137332
0.00137064
0.00136913
0.00136899
0.00137032
0.00226134
0.00226126
0.00226245
0.00226492
0.00226841
0.00227283
0.00227806
0.00228399
0.0022905
0.00229748
0.00230482
0.00231242
0.00232018
0.00232801
0.00233584
0.00234359
0.00235121
0.00235865
0.00236587
0.00237283
0.00237952
0.00238592
0.00239201
0.0023978
0.00240327
0.00240843
0.00241329
0.00241786
0.00242214
0.00242615
0.0024299
0.00243339
0.00243665
0.0024397
0.00244253
0.00244517
0.00244762
0.00244991
0.00245204
0.00245402
0.00245586
0.00245758
0.00245918
0.00246067
0.00246207
0.00246337
0.00246458
0.00246572
0.00246678
0.00246777
0.00246871
0.00246958
0.0024704
0.00247117
0.0024719
0.00247258
0.00247322
0.00247383
0.00247439
0.00247493
0.00247544
0.00247592
0.00247637
0.00247679
0.0024772
0.00247758
0.00247794
0.00247828
0.0024786
0.0024789
0.00247919
0.00247946
0.00247972
0.00247996
0.00248018
0.0024804
0.0024806
0.00248079
0.00248097
0.00248113
0.00248129
0.00248144
0.00248157
0.0024817
0.00248181
0.00248192
0.00248202
0.00248211
0.00248219
0.00248226
0.00248233
0.00248238
0.00248243
0.00248247
0.00248251
0.00248253
0.00248255
0.00248256
0.00248256
0.00248256
0.00248255
0.00248253
0.0024825
0.00248247
0.00248243
0.00248238
0.00248232
0.00248225
0.00248218
0.0024821
0.00248201
0.00248191
0.0024818
0.00248169
0.00248156
0.00248143
0.00248128
0.00248113
0.00248097
0.00248079
0.0024806
0.00248041
0.0024802
0.00247997
0.00247974
0.00247949
0.00247923
0.00247895
0.00247865
0.00247834
0.00247802
0.00247767
0.0024773
0.00247692
0.00247651
0.00247608
0.00247563
0.00247515
0.00247464
0.0024741
0.00247353
0.00247293
0.00247229
0.00247161
0.0024709
0.00247014
0.00246933
0.00246847
0.00246755
0.00246658
0.00246554
0.00246443
0.00246325
0.00246198
0.00246063
0.00245919
0.00245764
0.00245599
0.00245421
0.0024523
0.00245026
0.00244806
0.00244571
0.00244317
0.00244046
0.00243754
0.0024344
0.00243104
0.00242744
0.00242357
0.00241944
0.00241502
0.0024103
0.00240527
0.00239991
0.00239423
0.00238821
0.00238186
0.00237516
0.00236815
0.00236081
0.00235318
0.00234529
0.00233715
0.00232883
0.00232038
0.00231186
0.00230334
0.00229491
0.00228668
0.00227873
0.0022712
0.00226419
0.00225784
0.00225226
0.00224758
0.00224392
0.00224138
0.00224027
0.00224074
0.00333269
0.00333396
0.00333642
0.00334013
0.00334477
0.00335025
0.00335644
0.00336321
0.00337046
0.00337808
0.00338598
0.00339406
0.00340224
0.00341043
0.00341857
0.00342659
0.00343445
0.0034421
0.0034495
0.00345664
0.00346348
0.00347002
0.00347624
0.00348214
0.00348772
0.00349299
0.00349795
0.0035026
0.00350696
0.00351104
0.00351486
0.00351842
0.00352174
0.00352483
0.00352771
0.00353039
0.00353289
0.00353521
0.00353737
0.00353938
0.00354125
0.00354299
0.00354461
0.00354612
0.00354753
0.00354885
0.00355007
0.00355122
0.00355229
0.0035533
0.00355424
0.00355512
0.00355595
0.00355672
0.00355745
0.00355814
0.00355878
0.00355939
0.00355996
0.0035605
0.00356101
0.00356149
0.00356195
0.00356237
0.00356278
0.00356316
0.00356352
0.00356386
0.00356419
0.00356449
0.00356478
0.00356505
0.00356531
0.00356555
0.00356578
0.00356599
0.00356619
0.00356638
0.00356656
0.00356673
0.00356689
0.00356703
0.00356717
0.00356729
0.00356741
0.00356752
0.00356762
0.00356771
0.00356779
0.00356786
0.00356792
0.00356798
0.00356803
0.00356807
0.0035681
0.00356813
0.00356815
0.00356816
0.00356816
0.00356816
0.00356815
0.00356813
0.0035681
0.00356806
0.00356802
0.00356797
0.00356792
0.00356785
0.00356778
0.0035677
0.00356761
0.00356751
0.0035674
0.00356728
0.00356716
0.00356702
0.00356688
0.00356672
0.00356656
0.00356638
0.0035662
0.003566
0.00356579
0.00356557
0.00356533
0.00356508
0.00356482
0.00356454
0.00356424
0.00356393
0.0035636
0.00356325
0.00356289
0.0035625
0.00356209
0.00356166
0.0035612
0.00356072
0.00356021
0.00355967
0.0035591
0.00355849
0.00355785
0.00355717
0.00355645
0.00355568
0.00355487
0.003554
0.00355308
0.0035521
0.00355105
0.00354993
0.00354874
0.00354746
0.0035461
0.00354464
0.00354307
0.00354139
0.00353959
0.00353766
0.00353559
0.00353336
0.00353097
0.0035284
0.00352564
0.00352267
0.00351948
0.00351606
0.00351239
0.00350846
0.00350425
0.00349975
0.00349494
0.00348981
0.00348435
0.00347856
0.00347242
0.00346594
0.00345911
0.00345193
0.00344443
0.00343662
0.00342852
0.00342016
0.00341158
0.00340283
0.00339397
0.00338506
0.00337619
0.00336743
0.00335888
0.00335065
0.00334285
0.00333559
0.00332898
0.00332317
0.00331827
0.00331443
0.00331197
0.0033111
0.00459398
0.00459704
0.0046011
0.00460631
0.00461235
0.0046191
0.00462644
0.00463424
0.00464241
0.00465085
0.00465947
0.00466818
0.0046769
0.00468558
0.00469414
0.00470254
0.00471072
0.00471866
0.00472632
0.00473369
0.00474073
0.00474745
0.00475384
0.00475988
0.0047656
0.00477098
0.00477604
0.00478079
0.00478524
0.0047894
0.00479328
0.0047969
0.00480028
0.00480342
0.00480635
0.00480907
0.0048116
0.00481395
0.00481613
0.00481817
0.00482006
0.00482182
0.00482345
0.00482498
0.0048264
0.00482772
0.00482896
0.00483011
0.00483119
0.0048322
0.00483314
0.00483403
0.00483486
0.00483564
0.00483637
0.00483706
0.0048377
0.00483831
0.00483889
0.00483943
0.00483994
0.00484042
0.00484087
0.0048413
0.0048417
0.00484209
0.00484245
0.00484279
0.00484311
0.00484342
0.0048437
0.00484398
0.00484423
0.00484447
0.0048447
0.00484492
0.00484512
0.00484531
0.00484549
0.00484566
0.00484581
0.00484596
0.00484609
0.00484622
0.00484634
0.00484644
0.00484654
0.00484663
0.00484671
0.00484679
0.00484685
0.00484691
0.00484696
0.004847
0.00484703
0.00484706
0.00484707
0.00484708
0.00484709
0.00484708
0.00484707
0.00484705
0.00484703
0.00484699
0.00484695
0.0048469
0.00484684
0.00484678
0.0048467
0.00484662
0.00484653
0.00484643
0.00484633
0.00484621
0.00484608
0.00484595
0.00484581
0.00484565
0.00484549
0.00484531
0.00484512
0.00484493
0.00484471
0.00484449
0.00484426
0.00484401
0.00484374
0.00484346
0.00484317
0.00484286
0.00484253
0.00484218
0.00484181
0.00484142
0.00484102
0.00484058
0.00484013
0.00483964
0.00483913
0.00483859
0.00483802
0.00483741
0.00483677
0.00483609
0.00483537
0.0048346
0.00483378
0.00483291
0.00483199
0.004831
0.00482995
0.00482882
0.00482762
0.00482634
0.00482497
0.00482349
0.00482192
0.00482022
0.00481841
0.00481646
0.00481436
0.00481211
0.00480968
0.00480708
0.00480428
0.00480127
0.00479803
0.00479456
0.00479083
0.00478682
0.00478254
0.00477795
0.00477304
0.00476781
0.00476224
0.00475631
0.00475003
0.00474338
0.00473637
0.004729
0.00472128
0.00471322
0.00470483
0.00469615
0.00468722
0.00467806
0.00466874
0.00465931
0.00464983
0.00464039
0.00463107
0.00462196
0.00461317
0.00460479
0.00459695
0.00458976
0.00458338
0.00457793
0.00457376
0.00457109
0.00603333
0.00603854
0.00604451
0.00605147
0.00605911
0.00606733
0.006076
0.00608501
0.00609425
0.00610365
0.00611312
0.00612259
0.00613198
0.00614125
0.00615033
0.00615918
0.00616777
0.00617607
0.00618405
0.00619169
0.00619898
0.00620592
0.00621249
0.00621871
0.00622457
0.00623009
0.00623527
0.00624012
0.00624466
0.0062489
0.00625285
0.00625653
0.00625996
0.00626315
0.00626611
0.00626887
0.00627143
0.0062738
0.00627601
0.00627806
0.00627996
0.00628173
0.00628338
0.00628491
0.00628634
0.00628767
0.00628891
0.00629006
0.00629114
0.00629215
0.0062931
0.00629398
0.00629481
0.00629559
0.00629632
0.00629701
0.00629765
0.00629826
0.00629883
0.00629937
0.00629988
0.00630036
0.00630081
0.00630124
0.00630165
0.00630203
0.00630239
0.00630273
0.00630305
0.00630335
0.00630364
0.00630391
0.00630417
0.00630441
0.00630464
0.00630485
0.00630505
0.00630524
0.00630542
0.00630559
0.00630574
0.00630589
0.00630602
0.00630615
0.00630627
0.00630637
0.00630647
0.00630656
0.00630664
0.00630672
0.00630678
0.00630684
0.00630689
0.00630693
0.00630696
0.00630698
0.006307
0.00630701
0.00630702
0.00630701
0.006307
0.00630698
0.00630695
0.00630692
0.00630688
0.00630683
0.00630677
0.00630671
0.00630663
0.00630655
0.00630646
0.00630636
0.00630626
0.00630614
0.00630602
0.00630588
0.00630574
0.00630558
0.00630542
0.00630524
0.00630506
0.00630486
0.00630465
0.00630443
0.00630419
0.00630394
0.00630368
0.0063034
0.0063031
0.00630279
0.00630247
0.00630212
0.00630175
0.00630137
0.00630096
0.00630053
0.00630007
0.00629959
0.00629908
0.00629854
0.00629797
0.00629736
0.00629672
0.00629604
0.00629532
0.00629455
0.00629374
0.00629287
0.00629194
0.00629096
0.0062899
0.00628878
0.00628758
0.00628629
0.00628491
0.00628343
0.00628185
0.00628015
0.00627832
0.00627636
0.00627424
0.00627197
0.00626952
0.00626689
0.00626406
0.00626101
0.00625773
0.0062542
0.00625041
0.00624634
0.00624198
0.0062373
0.00623229
0.00622695
0.00622124
0.00621517
0.00620872
0.00620189
0.00619467
0.00618706
0.00617907
0.0061707
0.00616197
0.0061529
0.00614352
0.00613387
0.00612397
0.0061139
0.0061037
0.00609344
0.00608319
0.00607304
0.00606308
0.0060534
0.00604412
0.00603536
0.00602725
0.00601992
0.00601372
0.00600884
0.0076374
0.00764506
0.00765319
0.00766211
0.00767155
0.00768141
0.00769156
0.00770191
0.00771236
0.00772284
0.00773328
0.0077436
0.00775376
0.0077637
0.00777338
0.00778277
0.00779183
0.00780054
0.00780888
0.00781683
0.00782441
0.00783159
0.00783838
0.00784478
0.00785081
0.00785647
0.00786177
0.00786673
0.00787136
0.00787568
0.00787971
0.00788345
0.00788693
0.00789016
0.00789315
0.00789594
0.00789852
0.00790091
0.00790314
0.0079052
0.00790711
0.00790889
0.00791054
0.00791207
0.0079135
0.00791483
0.00791606
0.00791722
0.0079183
0.0079193
0.00792025
0.00792113
0.00792195
0.00792273
0.00792345
0.00792414
0.00792478
0.00792538
0.00792595
0.00792649
0.00792699
0.00792747
0.00792792
0.00792835
0.00792875
0.00792913
0.00792948
0.00792982
0.00793014
0.00793045
0.00793073
0.007931
0.00793126
0.0079315
0.00793172
0.00793193
0.00793214
0.00793232
0.0079325
0.00793267
0.00793282
0.00793297
0.0079331
0.00793323
0.00793334
0.00793345
0.00793355
0.00793364
0.00793372
0.00793379
0.00793386
0.00793391
0.00793396
0.007934
0.00793403
0.00793406
0.00793408
0.00793409
0.00793409
0.00793409
0.00793407
0.00793406
0.00793403
0.00793399
0.00793395
0.0079339
0.00793385
0.00793378
0.00793371
0.00793363
0.00793354
0.00793344
0.00793333
0.00793322
0.00793309
0.00793296
0.00793282
0.00793266
0.0079325
0.00793232
0.00793214
0.00793194
0.00793173
0.00793151
0.00793128
0.00793103
0.00793077
0.00793049
0.0079302
0.00792989
0.00792956
0.00792921
0.00792885
0.00792847
0.00792806
0.00792763
0.00792718
0.0079267
0.00792619
0.00792566
0.00792509
0.00792449
0.00792385
0.00792317
0.00792245
0.00792169
0.00792088
0.00792001
0.00791909
0.00791811
0.00791706
0.00791594
0.00791474
0.00791345
0.00791208
0.0079106
0.00790901
0.00790731
0.00790548
0.0079035
0.00790138
0.00789909
0.00789663
0.00789398
0.00789112
0.00788804
0.00788472
0.00788114
0.0078773
0.00787316
0.00786872
0.00786395
0.00785884
0.00785338
0.00784753
0.0078413
0.00783467
0.00782763
0.00782017
0.00781229
0.00780399
0.00779527
0.00778614
0.00777663
0.00776673
0.0077565
0.00774595
0.00773514
0.0077241
0.00771291
0.00770161
0.00769028
0.00767901
0.00766789
0.007657
0.00764647
0.00763643
0.00762698
0.00761846
0.00761105
0.00939159
0.00940195
0.00941243
0.00942349
0.00943488
0.0094465
0.00945826
0.00947006
0.00948182
0.00949348
0.00950497
0.00951624
0.00952723
0.00953792
0.00954826
0.00955823
0.0095678
0.00957696
0.0095857
0.00959401
0.00960189
0.00960933
0.00961636
0.00962296
0.00962917
0.00963498
0.00964041
0.00964548
0.0096502
0.0096546
0.00965869
0.00966248
0.00966601
0.00966927
0.0096723
0.00967511
0.0096777
0.00968011
0.00968234
0.00968441
0.00968632
0.0096881
0.00968975
0.00969128
0.0096927
0.00969403
0.00969526
0.00969641
0.00969748
0.00969848
0.00969941
0.00970029
0.00970111
0.00970187
0.0097026
0.00970327
0.00970391
0.00970451
0.00970507
0.0097056
0.0097061
0.00970658
0.00970702
0.00970744
0.00970784
0.00970822
0.00970857
0.00970891
0.00970922
0.00970952
0.00970981
0.00971007
0.00971033
0.00971056
0.00971079
0.009711
0.0097112
0.00971139
0.00971156
0.00971173
0.00971188
0.00971203
0.00971216
0.00971228
0.0097124
0.00971251
0.0097126
0.00971269
0.00971277
0.00971284
0.00971291
0.00971296
0.00971301
0.00971305
0.00971309
0.00971311
0.00971313
0.00971314
0.00971314
0.00971314
0.00971313
0.00971311
0.00971308
0.00971305
0.009713
0.00971296
0.0097129
0.00971283
0.00971276
0.00971268
0.00971259
0.00971249
0.00971239
0.00971227
0.00971215
0.00971202
0.00971187
0.00971172
0.00971156
0.00971139
0.0097112
0.00971101
0.0097108
0.00971058
0.00971035
0.0097101
0.00970984
0.00970956
0.00970927
0.00970897
0.00970864
0.0097083
0.00970794
0.00970756
0.00970716
0.00970673
0.00970628
0.00970581
0.0097053
0.00970477
0.00970421
0.00970361
0.00970298
0.00970231
0.0097016
0.00970084
0.00970004
0.00969918
0.00969827
0.00969729
0.00969625
0.00969513
0.00969394
0.00969266
0.00969129
0.00968982
0.00968824
0.00968654
0.0096847
0.00968273
0.00968061
0.00967831
0.00967584
0.00967317
0.00967029
0.00966718
0.00966383
0.00966021
0.00965632
0.00965212
0.0096476
0.00964275
0.00963754
0.00963194
0.00962596
0.00961956
0.00961274
0.00960547
0.00959776
0.00958958
0.00958094
0.00957184
0.00956227
0.00955226
0.0095418
0.00953092
0.00951966
0.00950803
0.00949608
0.00948385
0.00947141
0.0094588
0.00944611
0.0094334
0.00942078
0.00940833
0.00939618
0.00938443
0.00937336
0.00936316
0.0112803
0.0112935
0.0113065
0.0113198
0.0113332
0.0113467
0.0113602
0.0113735
0.0113867
0.0113996
0.0114122
0.0114244
0.0114363
0.0114478
0.0114588
0.0114694
0.0114795
0.0114892
0.0114984
0.011507
0.0115152
0.011523
0.0115302
0.011537
0.0115434
0.0115494
0.0115549
0.0115601
0.0115649
0.0115694
0.0115736
0.0115774
0.011581
0.0115843
0.0115873
0.0115901
0.0115927
0.0115952
0.0115974
0.0115994
0.0116014
0.0116031
0.0116048
0.0116063
0.0116077
0.011609
0.0116102
0.0116114
0.0116124
0.0116134
0.0116144
0.0116152
0.011616
0.0116168
0.0116175
0.0116182
0.0116188
0.0116194
0.0116199
0.0116205
0.011621
0.0116214
0.0116219
0.0116223
0.0116227
0.0116231
0.0116234
0.0116237
0.011624
0.0116243
0.0116246
0.0116249
0.0116251
0.0116254
0.0116256
0.0116258
0.011626
0.0116262
0.0116264
0.0116265
0.0116267
0.0116268
0.011627
0.0116271
0.0116272
0.0116273
0.0116274
0.0116275
0.0116276
0.0116276
0.0116277
0.0116277
0.0116278
0.0116278
0.0116279
0.0116279
0.0116279
0.0116279
0.0116279
0.0116279
0.0116279
0.0116279
0.0116279
0.0116278
0.0116278
0.0116277
0.0116277
0.0116276
0.0116275
0.0116275
0.0116274
0.0116273
0.0116272
0.0116271
0.0116269
0.0116268
0.0116267
0.0116265
0.0116264
0.0116262
0.011626
0.0116258
0.0116256
0.0116254
0.0116252
0.0116249
0.0116247
0.0116244
0.0116241
0.0116238
0.0116235
0.0116231
0.0116228
0.0116224
0.011622
0.0116216
0.0116211
0.0116207
0.0116202
0.0116196
0.0116191
0.0116185
0.0116179
0.0116172
0.0116165
0.0116158
0.011615
0.0116141
0.0116132
0.0116123
0.0116112
0.0116101
0.0116089
0.0116077
0.0116063
0.0116048
0.0116033
0.0116016
0.0115998
0.0115978
0.0115957
0.0115934
0.0115909
0.0115882
0.0115853
0.0115822
0.0115788
0.0115752
0.0115712
0.011567
0.0115624
0.0115575
0.0115521
0.0115464
0.0115403
0.0115337
0.0115267
0.0115192
0.0115112
0.0115027
0.0114937
0.0114842
0.0114742
0.0114637
0.0114526
0.011441
0.011429
0.0114165
0.0114036
0.0113903
0.0113766
0.0113626
0.0113484
0.0113341
0.0113196
0.0113051
0.0112907
0.0112765
0.0112628
0.0112496
0.013287
0.0133032
0.0133187
0.0133344
0.01335
0.0133654
0.0133806
0.0133955
0.0134101
0.0134243
0.013438
0.0134513
0.0134641
0.0134764
0.0134882
0.0134994
0.0135101
0.0135202
0.0135298
0.0135389
0.0135474
0.0135554
0.0135629
0.0135699
0.0135765
0.0135826
0.0135883
0.0135936
0.0135985
0.013603
0.0136072
0.0136111
0.0136147
0.013618
0.0136211
0.0136239
0.0136265
0.013629
0.0136312
0.0136332
0.0136351
0.0136369
0.0136385
0.01364
0.0136414
0.0136427
0.0136439
0.0136451
0.0136461
0.0136471
0.013648
0.0136489
0.0136496
0.0136504
0.0136511
0.0136518
0.0136524
0.013653
0.0136535
0.013654
0.0136545
0.013655
0.0136554
0.0136558
0.0136562
0.0136566
0.0136569
0.0136572
0.0136575
0.0136578
0.0136581
0.0136584
0.0136586
0.0136588
0.0136591
0.0136593
0.0136595
0.0136596
0.0136598
0.01366
0.0136601
0.0136603
0.0136604
0.0136605
0.0136606
0.0136607
0.0136608
0.0136609
0.013661
0.0136611
0.0136611
0.0136612
0.0136612
0.0136613
0.0136613
0.0136613
0.0136614
0.0136614
0.0136614
0.0136614
0.0136614
0.0136613
0.0136613
0.0136613
0.0136612
0.0136612
0.0136611
0.0136611
0.013661
0.0136609
0.0136608
0.0136607
0.0136606
0.0136605
0.0136604
0.0136603
0.0136601
0.01366
0.0136598
0.0136596
0.0136595
0.0136593
0.0136591
0.0136589
0.0136586
0.0136584
0.0136581
0.0136579
0.0136576
0.0136573
0.013657
0.0136566
0.0136563
0.0136559
0.0136555
0.0136551
0.0136547
0.0136542
0.0136537
0.0136532
0.0136526
0.0136521
0.0136515
0.0136508
0.0136501
0.0136494
0.0136486
0.0136478
0.0136469
0.0136459
0.0136449
0.0136438
0.0136427
0.0136414
0.0136401
0.0136386
0.0136371
0.0136354
0.0136336
0.0136316
0.0136295
0.0136272
0.0136247
0.0136221
0.0136192
0.013616
0.0136126
0.0136089
0.013605
0.0136007
0.013596
0.013591
0.0135856
0.0135798
0.0135735
0.0135667
0.0135595
0.0135518
0.0135435
0.0135347
0.0135254
0.0135154
0.0135049
0.0134938
0.0134822
0.0134699
0.0134571
0.0134437
0.0134297
0.0134153
0.0134004
0.013385
0.0133692
0.0133531
0.0133368
0.0133202
0.0133035
0.0132867
0.0132702
0.0132539
0.0153947
0.0154139
0.0154321
0.0154501
0.0154678
0.0154852
0.0155021
0.0155186
0.0155347
0.0155501
0.0155651
0.0155794
0.0155931
0.0156062
0.0156187
0.0156306
0.0156419
0.0156525
0.0156625
0.015672
0.0156808
0.0156891
0.0156968
0.0157041
0.0157108
0.0157171
0.0157229
0.0157282
0.0157332
0.0157378
0.0157421
0.015746
0.0157496
0.015753
0.015756
0.0157589
0.0157615
0.0157639
0.0157661
0.0157681
0.01577
0.0157718
0.0157734
0.0157749
0.0157762
0.0157775
0.0157787
0.0157798
0.0157808
0.0157818
0.0157827
0.0157835
0.0157843
0.015785
0.0157857
0.0157864
0.015787
0.0157875
0.0157881
0.0157886
0.0157891
0.0157895
0.0157899
0.0157903
0.0157907
0.0157911
0.0157914
0.0157917
0.015792
0.0157923
0.0157926
0.0157929
0.0157931
0.0157933
0.0157935
0.0157937
0.0157939
0.0157941
0.0157943
0.0157944
0.0157946
0.0157947
0.0157949
0.015795
0.0157951
0.0157952
0.0157953
0.0157954
0.0157955
0.0157955
0.0157956
0.0157956
0.0157957
0.0157957
0.0157958
0.0157958
0.0157958
0.0157958
0.0157958
0.0157958
0.0157958
0.0157958
0.0157958
0.0157957
0.0157957
0.0157956
0.0157956
0.0157955
0.0157954
0.0157954
0.0157953
0.0157952
0.0157951
0.015795
0.0157949
0.0157947
0.0157946
0.0157944
0.0157943
0.0157941
0.0157939
0.0157937
0.0157935
0.0157933
0.0157931
0.0157929
0.0157926
0.0157924
0.0157921
0.0157918
0.0157915
0.0157911
0.0157908
0.0157904
0.01579
0.0157896
0.0157892
0.0157888
0.0157883
0.0157878
0.0157872
0.0157867
0.0157861
0.0157854
0.0157847
0.015784
0.0157833
0.0157824
0.0157816
0.0157806
0.0157796
0.0157786
0.0157774
0.0157762
0.0157749
0.0157734
0.0157719
0.0157703
0.0157685
0.0157665
0.0157644
0.0157622
0.0157597
0.015757
0.0157541
0.015751
0.0157476
0.0157439
0.0157399
0.0157355
0.0157308
0.0157257
0.0157202
0.0157143
0.0157079
0.015701
0.0156936
0.0156856
0.0156771
0.015668
0.0156583
0.0156479
0.0156369
0.0156253
0.015613
0.0156
0.0155864
0.0155721
0.0155571
0.0155415
0.0155253
0.0155085
0.0154912
0.0154734
0.0154551
0.0154363
0.0154173
0.015398
0.0153785
0.0153591
0.017586
0.0176081
0.0176289
0.0176493
0.0176692
0.0176885
0.0177072
0.0177253
0.0177427
0.0177595
0.0177755
0.0177909
0.0178055
0.0178195
0.0178327
0.0178452
0.017857
0.0178681
0.0178786
0.0178884
0.0178975
0.0179061
0.0179141
0.0179215
0.0179284
0.0179347
0.0179407
0.0179461
0.0179512
0.0179558
0.0179601
0.0179641
0.0179677
0.017971
0.0179741
0.0179769
0.0179795
0.0179819
0.0179841
0.0179861
0.017988
0.0179897
0.0179913
0.0179928
0.0179941
0.0179954
0.0179966
0.0179976
0.0179986
0.0179996
0.0180005
0.0180013
0.018002
0.0180027
0.0180034
0.018004
0.0180046
0.0180052
0.0180057
0.0180062
0.0180067
0.0180071
0.0180075
0.0180079
0.0180083
0.0180086
0.018009
0.0180093
0.0180096
0.0180099
0.0180101
0.0180104
0.0180106
0.0180109
0.0180111
0.0180113
0.0180115
0.0180116
0.0180118
0.018012