/*--------------------------------*- C++ -*----------------------------------*\
| =========                 |                                                 |
| \\      /  F ield         | OpenFOAM: The Open Source CFD Toolbox           |
|  \\    /   O peration     | Version:  2412                                  |
|   \\  /    A nd           | Website:  www.openfoam.com                      |
|    \\/     M anipulation  |                                                 |
\*---------------------------------------------------------------------------*/
FoamFile
{
    version     2.0;
    format      ascii;
    arch        "LSB;label=32;scalar=64";
    class       surfaceScalarField;
    location    "600";
    object      phi;
}
// * * * * * * * * * * * * * * * * * * * * * * * * * * * * * * * * * * * * * //

dimensions      [0 3 -1 0 0 0 0];

oriented        oriented;

internalField   nonuniform List<scalar> 
79600
(
-3.56757e-13
3.50219e-13
-2.74914e-12
2.3927e-12
-6.8833e-12
4.13435e-12
-1.21132e-11
5.22968e-12
-1.78509e-11
5.73827e-12
-2.36385e-11
5.78802e-12
-2.91476e-11
5.50912e-12
-3.41573e-11
5.00997e-12
-3.85324e-11
4.37464e-12
-4.22005e-11
3.66792e-12
-4.51373e-11
2.93673e-12
-4.73535e-11
2.21598e-12
-4.88834e-11
1.53002e-12
-4.97793e-11
8.95315e-13
-5.0102e-11
3.22484e-13
-4.992e-11
-1.82935e-13
-4.93012e-11
-6.18712e-13
-4.8315e-11
-9.86423e-13
-4.70267e-11
-1.28857e-12
-4.54978e-11
-1.52925e-12
-4.37842e-11
-1.71381e-12
-4.19364e-11
-1.848e-12
-3.99987e-11
-1.93767e-12
-3.80094e-11
-1.98914e-12
-3.60022e-11
-2.00779e-12
-3.40029e-11
-1.99879e-12
-3.2035e-11
-1.96794e-12
-3.0116e-11
-1.91906e-12
-2.82599e-11
-1.85624e-12
-2.64768e-11
-1.7831e-12
-2.47739e-11
-1.70265e-12
-2.31562e-11
-1.61754e-12
-2.16262e-11
-1.53e-12
-2.01846e-11
-1.44146e-12
-1.88307e-11
-1.35353e-12
-1.75629e-11
-1.26766e-12
-1.63784e-11
-1.18417e-12
-1.52743e-11
-1.10416e-12
-1.42466e-11
-1.02748e-12
-1.32916e-11
-9.55186e-13
-1.24047e-11
-8.86659e-13
-1.15824e-11
-8.22528e-13
-1.08198e-11
-7.62623e-13
-1.01133e-11
-7.06596e-13
-9.45868e-12
-6.54503e-13
-8.8521e-12
-6.06485e-13
-8.29022e-12
-5.61967e-13
-7.76947e-12
-5.20685e-13
-7.28649e-12
-4.82718e-13
-6.83836e-12
-4.47824e-13
-6.42249e-12
-4.15736e-13
-6.03616e-12
-3.86255e-13
-5.67681e-12
-3.59139e-13
-5.34233e-12
-3.34242e-13
-5.03083e-12
-3.11443e-13
-4.74039e-12
-2.90494e-13
-4.46918e-12
-2.71159e-13
-4.21568e-12
-2.53382e-13
-3.97848e-12
-2.37102e-13
-3.75623e-12
-2.22164e-13
-3.54769e-12
-2.08409e-13
-3.35179e-12
-1.95762e-13
-3.16758e-12
-1.84141e-13
-2.99413e-12
-1.73442e-13
-2.83055e-12
-1.6355e-13
-2.67609e-12
-1.54406e-13
-2.53004e-12
-1.4597e-13
-2.39171e-12
-1.38218e-13
-2.26053e-12
-1.31102e-13
-2.13598e-12
-1.24543e-13
-2.0176e-12
-1.18435e-13
-1.90492e-12
-1.1273e-13
-1.79745e-12
-1.07446e-13
-1.69476e-12
-1.02621e-13
-1.59655e-12
-9.82022e-14
-1.50253e-12
-9.40918e-14
-1.41237e-12
-9.01966e-14
-1.32572e-12
-8.65691e-14
-1.24226e-12
-8.32587e-14
-1.16187e-12
-8.03585e-14
-1.08432e-12
-7.7683e-14
-1.00943e-12
-7.51338e-14
-9.36859e-13
-7.26375e-14
-8.66353e-13
-7.0315e-14
-7.9782e-13
-6.8309e-14
-7.31138e-13
-6.6538e-14
-6.66161e-13
-6.49259e-14
-6.02685e-13
-6.34521e-14
-5.40528e-13
-6.21359e-14
-4.79626e-13
-6.09683e-14
-4.19825e-13
-5.98304e-14
-3.60881e-13
-5.87138e-14
-3.0266e-13
-5.78012e-14
-2.45135e-13
-5.71904e-14
-1.88253e-13
-5.67715e-14
-1.31882e-13
-5.64016e-14
-7.58411e-14
-5.60431e-14
-1.99775e-14
-5.57519e-14
3.57932e-14
-5.55888e-14
9.15685e-14
-5.55654e-14
1.47487e-13
-5.56754e-14
2.0364e-13
-5.59169e-14
2.60093e-13
-5.6269e-14
3.16982e-13
-5.67243e-14
3.74471e-13
-5.73223e-14
4.32653e-13
-5.8092e-14
4.91606e-13
-5.89967e-14
5.5147e-13
-5.99779e-14
6.1244e-13
-6.10279e-14
6.74684e-13
-6.21949e-14
7.38284e-13
-6.35129e-14
8.03321e-13
-6.49731e-14
8.69963e-13
-6.65835e-14
9.38419e-13
-6.83834e-14
1.00886e-12
-7.03867e-14
1.08145e-12
-7.25654e-14
1.15638e-12
-7.49158e-14
1.23386e-12
-7.74637e-14
1.31405e-12
-8.02197e-14
1.39717e-12
-8.31672e-14
1.48348e-12
-8.6341e-14
1.57327e-12
-8.98044e-14
1.66679e-12
-9.35685e-14
1.76432e-12
-9.75908e-14
1.86621e-12
-1.01855e-13
1.97284e-12
-1.06436e-13
2.08456e-12
-1.11438e-13
2.20171e-12
-1.16896e-13
2.3247e-12
-1.22813e-13
2.45404e-12
-1.29219e-13
2.59026e-12
-1.3616e-13
2.7339e-12
-1.43643e-13
2.88554e-12
-1.51642e-13
3.04588e-12
-1.60187e-13
3.21572e-12
-1.69454e-13
3.3958e-12
-1.79671e-13
3.58686e-12
-1.90919e-13
3.78975e-12
-2.03122e-13
4.00557e-12
-2.16206e-13
4.23554e-12
-2.30216e-13
4.48093e-12
-2.45326e-13
4.74306e-12
-2.61754e-13
5.02339e-12
-2.79746e-13
5.32345e-12
-2.99577e-13
5.64486e-12
-3.21392e-13
5.98949e-12
-3.45124e-13
6.3595e-12
-3.70685e-13
6.75724e-12
-3.98195e-13
7.18522e-12
-4.27993e-13
7.64605e-12
-4.60444e-13
8.14257e-12
-4.95848e-13
8.67785e-12
-5.34506e-13
9.25513e-12
-5.76698e-13
9.87791e-12
-6.22587e-13
1.05499e-11
-6.72213e-13
1.12751e-11
-7.25648e-13
1.20579e-11
-7.83129e-13
1.29026e-11
-8.4493e-13
1.38136e-11
-9.11217e-13
1.47954e-11
-9.82028e-13
1.58525e-11
-1.05728e-12
1.69897e-11
-1.13691e-12
1.82112e-11
-1.22089e-12
1.95207e-11
-1.30895e-12
2.09218e-11
-1.4005e-12
2.2417e-11
-1.49477e-12
2.40083e-11
-1.5908e-12
2.5696e-11
-1.68732e-12
2.7479e-11
-1.78277e-12
2.93541e-11
-1.87516e-12
3.13158e-11
-1.96192e-12
3.3356e-11
-2.04025e-12
3.54627e-11
-2.1068e-12
3.76204e-11
-2.15768e-12
3.98091e-11
-2.18862e-12
4.20036e-11
-2.19463e-12
4.41734e-11
-2.17012e-12
4.62823e-11
-2.10915e-12
4.82877e-11
-2.00552e-12
5.01406e-11
-1.85293e-12
5.17855e-11
-1.64497e-12
5.31608e-11
-1.37544e-12
5.41996e-11
-1.03881e-12
5.48302e-11
-6.30667e-13
5.49784e-11
-1.48231e-13
5.45691e-11
4.09182e-13
5.35299e-11
1.03908e-12
5.17951e-11
1.73487e-12
4.93104e-11
2.48471e-12
4.60403e-11
3.26999e-12
4.19763e-11
4.06365e-12
3.71487e-11
4.82745e-12
3.16394e-11
5.5092e-12
2.56008e-11
6.03879e-12
1.92768e-11
6.32433e-12
1.30283e-11
6.24895e-12
7.35595e-12
5.67287e-12
2.89616e-12
4.46001e-12
3.4255e-13
2.55362e-12
3.42316e-13
-2.54689e-12
2.89681e-12
-9.67125e-12
9.51658e-12
-2.03889e-11
1.48522e-11
-3.34446e-11
1.82848e-11
-4.76586e-11
1.99519e-11
-6.20506e-11
2.01797e-11
-7.58675e-11
1.93262e-11
-8.85684e-11
1.77112e-11
-9.97938e-11
1.56007e-11
-1.09333e-10
1.32067e-11
-1.1709e-10
1.06939e-11
-1.2306e-10
8.1861e-12
-1.27303e-10
5.77404e-12
-1.29929e-10
3.52129e-12
-1.31075e-10
1.46987e-12
-1.30903e-10
-3.55436e-13
-1.29578e-10
-1.94306e-12
-1.27271e-10
-3.29319e-12
-1.24146e-10
-4.41268e-12
-1.2036e-10
-5.31476e-12
-1.16057e-10
-6.01591e-12
-1.11369e-10
-6.53506e-12
-1.06415e-10
-6.89285e-12
-1.01294e-10
-7.10925e-12
-9.60966e-11
-7.20523e-12
-9.08965e-11
-7.19917e-12
-8.57553e-11
-7.10919e-12
-8.07227e-11
-6.95137e-12
-7.58383e-11
-6.74074e-12
-7.11316e-11
-6.48976e-12
-6.66245e-11
-6.20978e-12
-6.23319e-11
-5.91052e-12
-5.82624e-11
-5.59983e-12
-5.442e-11
-5.28426e-12
-5.08049e-11
-4.96937e-12
-4.74133e-11
-4.65938e-12
-4.424e-11
-4.35771e-12
-4.12771e-11
-4.06686e-12
-3.85163e-11
-3.78867e-12
-3.59472e-11
-3.52434e-12
-3.35592e-11
-3.27404e-12
-3.13427e-11
-3.03963e-12
-2.92855e-11
-2.81928e-12
-2.73779e-11
-2.6139e-12
-2.56098e-11
-2.4232e-12
-2.39701e-11
-2.24569e-12
-2.24501e-11
-2.08148e-12
-2.10412e-11
-1.93007e-12
-1.97342e-11
-1.79011e-12
-1.85209e-11
-1.661e-12
-1.73945e-11
-1.54235e-12
-1.63478e-11
-1.43316e-12
-1.53742e-11
-1.3326e-12
-1.44678e-11
-1.24026e-12
-1.36235e-11
-1.15558e-12
-1.2836e-11
-1.07781e-12
-1.21008e-11
-1.00631e-12
-1.14137e-11
-9.40632e-13
-1.07708e-11
-8.80283e-13
-1.01683e-11
-8.24741e-13
-9.60308e-12
-7.73607e-13
-9.07213e-12
-7.26593e-13
-8.57281e-12
-6.83382e-13
-8.10263e-12
-6.43622e-13
-7.65931e-12
-6.06985e-13
-7.24078e-12
-5.73198e-13
-6.8451e-12
-5.41979e-13
-6.47044e-12
-5.13102e-13
-6.11514e-12
-4.86417e-13
-5.77775e-12
-4.61826e-13
-5.45703e-12
-4.39175e-13
-5.15179e-12
-4.18255e-13
-4.86083e-12
-3.98823e-13
-4.58295e-12
-3.80788e-13
-4.31714e-12
-3.64105e-13
-4.06257e-12
-3.48767e-13
-3.81846e-12
-3.3456e-13
-3.58402e-12
-3.21357e-13
-3.35843e-12
-3.09056e-13
-3.14094e-12
-2.97754e-13
-2.93099e-12
-2.8745e-13
-2.7281e-12
-2.78026e-13
-2.53177e-12
-2.69299e-13
-2.34135e-12
-2.61145e-13
-2.15621e-12
-2.53634e-13
-1.9759e-12
-2.46818e-13
-1.8001e-12
-2.40645e-13
-1.62843e-12
-2.35056e-13
-1.4604e-12
-2.30058e-13
-1.29562e-12
-2.25667e-13
-1.1338e-12
-2.21771e-13
-9.746e-13
-2.18223e-13
-8.17541e-13
-2.15023e-13
-6.62202e-13
-2.12314e-13
-5.08332e-13
-2.10191e-13
-3.5575e-13
-2.08608e-13
-2.04179e-13
-2.07449e-13
-5.32309e-14
-2.06667e-13
9.74585e-14
-2.06276e-13
2.48198e-13
-2.06277e-13
3.99289e-13
-2.06683e-13
5.51e-13
-2.07555e-13
7.03565e-13
-2.08895e-13
8.57304e-13
-2.10632e-13
1.01262e-12
-2.12749e-13
1.16987e-12
-2.15325e-13
1.32936e-12
-2.18419e-13
1.49138e-12
-2.22003e-13
1.6563e-12
-2.2602e-13
1.82453e-12
-2.30487e-13
1.99641e-12
-2.35499e-13
2.17224e-12
-2.41101e-13
2.35245e-12
-2.47256e-13
2.53757e-12
-2.53937e-13
2.72811e-12
-2.61193e-13
2.92448e-12
-2.69096e-13
3.12716e-12
-2.77692e-13
3.33674e-12
-2.87031e-13
3.55378e-12
-2.97189e-13
3.77881e-12
-3.08209e-13
4.01243e-12
-3.20108e-13
4.25543e-12
-3.32931e-13
4.50863e-12
-3.46777e-13
4.7728e-12
-3.61749e-13
5.04873e-12
-3.77894e-13
5.33737e-12
-3.95257e-13
5.6398e-12
-4.13965e-13
5.95706e-12
-4.3418e-13
6.29025e-12
-4.56028e-13
6.6407e-12
-4.79621e-13
7.00984e-12
-5.05132e-13
7.39921e-12
-5.32788e-13
7.81034e-12
-5.62759e-13
8.24494e-12
-5.95088e-13
8.70505e-12
-6.29884e-13
9.19295e-12
-6.67517e-13
9.7109e-12
-7.08467e-13
1.02613e-11
-7.53087e-13
1.0847e-11
-8.01597e-13
1.14709e-11
-8.54237e-13
1.21363e-11
-9.11333e-13
1.28467e-11
-9.73206e-13
1.36064e-11
-1.04023e-12
1.44196e-11
-1.11303e-12
1.52913e-11
-1.19246e-12
1.62263e-11
-1.27921e-12
1.723e-11
-1.37377e-12
1.83085e-11
-1.4766e-12
1.94682e-11
-1.58832e-12
2.07165e-11
-1.70965e-12
2.20609e-11
-1.84132e-12
2.35098e-11
-1.98415e-12
2.50719e-11
-2.13906e-12
2.67568e-11
-2.30701e-12
2.85742e-11
-2.48886e-12
3.05345e-11
-2.68521e-12
3.26486e-11
-2.89662e-12
3.4928e-11
-3.12368e-12
3.73842e-11
-3.36687e-12
4.00289e-11
-3.62644e-12
4.28736e-11
-3.9022e-12
4.59295e-11
-4.19353e-12
4.92074e-11
-4.49961e-12
5.27169e-11
-4.81912e-12
5.64658e-11
-5.15003e-12
6.04599e-11
-5.48943e-12
6.47022e-11
-5.83353e-12
6.91921e-11
-6.17743e-12
7.39247e-11
-6.51519e-12
7.88894e-11
-6.83947e-12
8.40692e-11
-7.14119e-12
8.94392e-11
-7.40975e-12
9.49656e-11
-7.63271e-12
1.00604e-10
-7.79573e-12
1.06299e-10
-7.88287e-12
1.11982e-10
-7.87637e-12
1.17569e-10
-7.7567e-12
1.22963e-10
-7.50296e-12
1.28051e-10
-7.09309e-12
1.32703e-10
-6.50493e-12
1.36775e-10
-5.7168e-12
1.40108e-10
-4.70828e-12
1.42531e-10
-3.46181e-12
1.43865e-10
-1.96405e-12
1.43925e-10
-2.08207e-13
1.4253e-10
1.80384e-12
1.39511e-10
4.0588e-12
1.34717e-10
6.52822e-12
1.28037e-10
9.16472e-12
1.19411e-10
1.18969e-11
1.08851e-10
1.46243e-11
9.64684e-11
1.72101e-11
8.25032e-11
1.94743e-11
6.7356e-11
2.11859e-11
5.16239e-11
2.2056e-11
3.61329e-11
2.17395e-11
2.19524e-11
1.98535e-11
1.03591e-11
1.60538e-11
2.70022e-12
1.02135e-11
3.04245e-12
-4.54655e-12
7.44339e-12
-1.57572e-11
2.07275e-11
-3.17294e-11
3.08243e-11
-5.07485e-11
3.73043e-11
-7.12926e-11
4.04958e-11
-9.20852e-11
4.09721e-11
-1.12117e-10
3.93578e-11
-1.30637e-10
3.62306e-11
-1.47123e-10
3.20873e-11
-1.61253e-10
2.73365e-11
-1.72863e-10
2.23037e-11
-1.81918e-10
1.7241e-11
-1.88482e-10
1.23375e-11
-1.9269e-10
7.72822e-12
-1.94725e-10
3.50587e-12
-1.94807e-10
-2.73578e-13
-1.9317e-10
-3.58098e-12
-1.90053e-10
-6.41014e-12
-1.85695e-10
-8.77167e-12
-1.80321e-10
-1.06886e-11
-1.74145e-10
-1.21922e-11
-1.67361e-10
-1.33196e-11
-1.60143e-10
-1.41114e-11
-1.52645e-10
-1.46077e-11
-1.45e-10
-1.48501e-11
-1.37322e-10
-1.48771e-11
-1.29705e-10
-1.47257e-11
-1.22227e-10
-1.44294e-11
-1.1495e-10
-1.40184e-11
-1.0792e-10
-1.35197e-11
-1.01173e-10
-1.29567e-11
-9.47333e-11
-1.23497e-11
-8.86172e-11
-1.17158e-11
-8.28324e-11
-1.10688e-11
-7.73811e-11
-1.04211e-11
-7.22595e-11
-9.78072e-12
-6.74609e-11
-9.15626e-12
-6.29752e-11
-8.55258e-12
-5.87901e-11
-7.97373e-12
-5.48915e-11
-7.42285e-12
-5.12653e-11
-6.90109e-12
-4.78949e-11
-6.40986e-12
-4.47653e-11
-5.94898e-12
-4.18611e-11
-5.5183e-12
-3.91664e-11
-5.11743e-12
-3.66669e-11
-4.74503e-12
-3.43486e-11
-4.39993e-12
-3.21979e-11
-4.08069e-12
-3.02018e-11
-3.78584e-12
-2.83486e-11
-3.51406e-12
-2.66271e-11
-3.26382e-12
-2.50269e-11
-3.03338e-12
-2.35381e-11
-2.82131e-12
-2.21521e-11
-2.6264e-12
-2.08603e-11
-2.44729e-12
-1.96553e-11
-2.28268e-12
-1.85301e-11
-2.13144e-12
-1.74782e-11
-1.99249e-12
-1.64937e-11
-1.86476e-12
-1.55712e-11
-1.74725e-12
-1.47057e-11
-1.63912e-12
-1.38927e-11
-1.53963e-12
-1.3128e-11
-1.44805e-12
-1.24079e-11
-1.36369e-12
-1.17289e-11
-1.28596e-12
-1.10877e-11
-1.21433e-12
-1.04815e-11
-1.14824e-12
-9.90758e-12
-1.08718e-12
-9.36344e-12
-1.03071e-12
-8.8468e-12
-9.78519e-13
-8.3556e-12
-9.30347e-13
-7.88797e-12
-8.85894e-13
-7.44219e-12
-8.44767e-13
-7.01655e-12
-8.0662e-13
-6.60951e-12
-7.71267e-13
-6.2196e-12
-7.38566e-13
-5.84563e-12
-7.08428e-13
-5.48647e-12
-6.80589e-13
-5.14106e-12
-6.5483e-13
-4.80821e-12
-6.30919e-13
-4.48684e-12
-6.08831e-13
-4.17609e-12
-5.88547e-13
-3.87522e-12
-5.69971e-13
-3.5835e-12
-5.52901e-13
-3.30005e-12
-5.37186e-13
-3.02405e-12
-5.22829e-13
-2.75496e-12
-5.09801e-13
-2.49219e-12
-4.97991e-13
-2.23503e-12
-4.87301e-13
-1.98273e-12
-4.77713e-13
-1.73479e-12
-4.69282e-13
-1.49083e-12
-4.61971e-13
-1.25036e-12
-4.55618e-13
-1.01275e-12
-4.50129e-13
-7.77392e-13
-4.45568e-13
-5.43854e-13
-4.42004e-13
-3.11754e-13
-4.39407e-13
-8.06048e-14
-4.37705e-13
1.50135e-13
-4.3687e-13
3.80922e-13
-4.36904e-13
6.12181e-13
-4.37821e-13
8.44396e-13
-4.39668e-13
1.07803e-12
-4.4247e-13
1.31351e-12
-4.46191e-13
1.55132e-12
-4.50786e-13
1.79198e-12
-4.56272e-13
2.03608e-12
-4.62708e-13
2.28416e-12
-4.70145e-13
2.53671e-12
-4.7859e-13
2.79428e-12
-4.88059e-13
3.05743e-12
-4.98634e-13
3.32673e-12
-5.10409e-13
3.60282e-12
-5.23403e-13
3.88638e-12
-5.37607e-13
4.17817e-12
-5.53076e-13
4.47891e-12
-5.69922e-13
4.78933e-12
-5.88229e-13
5.11026e-12
-6.08071e-13
5.44262e-12
-6.2958e-13
5.78727e-12
-6.52905e-13
6.14515e-12
-6.78135e-13
6.5174e-12
-7.05329e-13
6.90524e-12
-7.34625e-13
7.30994e-12
-7.6626e-13
7.73275e-12
-8.00454e-13
8.17503e-12
-8.37359e-13
8.63835e-12
-8.7717e-13
9.12438e-12
-9.20158e-13
9.63488e-12
-9.66588e-13
1.01718e-11
-1.01669e-12
1.07373e-11
-1.07073e-12
1.13338e-11
-1.12913e-12
1.19638e-11
-1.19239e-12
1.26299e-11
-1.26095e-12
1.33351e-11
-1.33513e-12
1.40824e-11
-1.41535e-12
1.48756e-11
-1.50221e-12
1.57186e-11
-1.59638e-12
1.66157e-11
-1.69856e-12
1.75714e-11
-1.80953e-12
1.85909e-11
-1.93018e-12
1.96794e-11
-2.06142e-12
2.08428e-11
-2.20402e-12
2.20877e-11
-2.35885e-12
2.34214e-11
-2.52705e-12
2.48518e-11
-2.71001e-12
2.63873e-11
-2.90911e-12
2.8037e-11
-3.12573e-12
2.98107e-11
-3.3613e-12
3.17192e-11
-3.61738e-12
3.37739e-11
-3.89556e-12
3.5987e-11
-4.19738e-12
3.83718e-11
-4.52439e-12
4.09424e-11
-4.87823e-12
4.37137e-11
-5.26062e-12
4.67012e-11
-5.67305e-12
4.99209e-11
-6.11675e-12
5.33896e-11
-6.59274e-12
5.71244e-11
-7.10172e-12
6.11423e-11
-7.64402e-12
6.54602e-11
-8.2194e-12
7.00939e-11
-8.82664e-12
7.50583e-11
-9.46358e-12
8.03667e-11
-1.0127e-11
8.60295e-11
-1.08125e-11
9.20539e-11
-1.15135e-11
9.84424e-11
-1.2222e-11
1.05192e-10
-1.29274e-11
1.12293e-10
-1.36166e-11
1.19727e-10
-1.4274e-11
1.27466e-10
-1.48804e-11
1.3547e-10
-1.54135e-11
1.43685e-10
-1.58473e-11
1.52041e-10
-1.61521e-11
1.60452e-10
-1.62945e-11
1.68813e-10
-1.62375e-11
1.76997e-10
-1.59412e-11
1.84857e-10
-1.5363e-11
1.92223e-10
-1.44589e-11
1.98901e-10
-1.31841e-11
2.0468e-10
-1.14957e-11
2.09326e-10
-9.35426e-12
2.12591e-10
-6.72682e-12
2.14217e-10
-3.58993e-12
2.13943e-10
6.57651e-14
2.11515e-10
4.23091e-12
2.06702e-10
8.87184e-12
1.99306e-10
1.39237e-11
1.89188e-10
1.92829e-11
1.76286e-10
2.47981e-11
1.6065e-10
3.02605e-11
1.42468e-10
3.53928e-11
1.22104e-10
3.98387e-11
1.00137e-10
4.3153e-11
7.73963e-11
4.47969e-11
5.49875e-11
4.41483e-11
3.43008e-11
4.05401e-11
1.69841e-11
3.33702e-11
4.87801e-12
2.23201e-11
7.92055e-12
-5.99032e-12
1.34334e-11
-2.02885e-11
3.50263e-11
-4.02308e-11
5.07659e-11
-6.36878e-11
6.07623e-11
-8.8883e-11
6.5691e-11
-1.14352e-10
6.64413e-11
-1.38931e-10
6.39374e-11
-1.6174e-10
5.90392e-11
-1.82151e-10
5.24991e-11
-1.99763e-10
4.49479e-11
-2.14356e-10
3.68973e-11
-2.25866e-10
2.87516e-11
-2.34348e-10
2.08184e-11
-2.39944e-10
1.33236e-11
-2.42862e-10
6.42417e-12
-2.43355e-10
2.1906e-13
-2.41697e-10
-5.23776e-12
-2.38177e-10
-9.92974e-12
-2.3308e-10
-1.3868e-11
-2.26683e-10
-1.7085e-11
-2.19247e-10
-1.96286e-11
-2.11011e-10
-2.15552e-11
-2.02194e-10
-2.29286e-11
-1.92987e-10
-2.3814e-11
-1.8356e-10
-2.42771e-11
-1.74057e-10
-2.43804e-11
-1.64599e-10
-2.4184e-11
-1.55286e-10
-2.37427e-11
-1.46198e-10
-2.31064e-11
-1.37398e-10
-2.23195e-11
-1.28933e-10
-2.14211e-11
-1.20839e-10
-2.04447e-11
-1.13135e-10
-1.94187e-11
-1.05837e-10
-1.83678e-11
-9.89468e-11
-1.73105e-11
-9.24646e-11
-1.62635e-11
-8.63824e-11
-1.52389e-11
-8.06888e-11
-1.42457e-11
-7.53707e-11
-1.32923e-11
-7.04103e-11
-1.23823e-11
-6.57916e-11
-1.15202e-11
-6.14945e-11
-1.07066e-11
-5.75006e-11
-9.94286e-12
-5.37914e-11
-9.22844e-12
-5.03469e-11
-8.56173e-12
-4.71491e-11
-7.94219e-12
-4.41813e-11
-7.36797e-12
-4.14261e-11
-6.83608e-12
-3.88677e-11
-6.34436e-12
-3.6491e-11
-5.89074e-12
-3.42819e-11
-5.47267e-12
-3.22274e-11
-5.08761e-12
-3.03154e-11
-4.73327e-12
-2.85344e-11
-4.40736e-12
-2.6874e-11
-4.10762e-12
-2.53246e-11
-3.83204e-12
-2.38774e-11
-3.57874e-12
-2.25241e-11
-3.34586e-12
-2.12572e-11
-3.13167e-12
-2.00696e-11
-2.93465e-12
-1.89553e-11
-2.75339e-12
-1.79084e-11
-2.58656e-12
-1.69236e-11
-2.43292e-12
-1.5996e-11
-2.29134e-12
-1.51212e-11
-2.16083e-12
-1.42951e-11
-2.04045e-12
-1.35139e-11
-1.92938e-12
-1.27741e-11
-1.82684e-12
-1.20728e-11
-1.73212e-12
-1.14069e-11
-1.64455e-12
-1.07738e-11
-1.5636e-12
-1.0171e-11
-1.48874e-12
-9.59615e-12
-1.41956e-12
-9.04732e-12
-1.35553e-12
-8.52253e-12
-1.29622e-12
-8.01991e-12
-1.24127e-12
-7.53773e-12
-1.19047e-12
-7.07453e-12
-1.1436e-12
-6.62894e-12
-1.10036e-12
-6.19967e-12
-1.06037e-12
-5.78534e-12
-1.02335e-12
-5.38474e-12
-9.89207e-13
-4.99676e-12
-9.57844e-13
-4.62046e-12
-9.2911e-13
-4.25486e-12
-9.02758e-13
-3.89893e-12
-8.78661e-13
-3.55185e-12
-8.56808e-13
-3.21289e-12
-8.37071e-13
-2.88123e-12
-8.19227e-13
-2.55598e-12
-8.03136e-13
-2.23634e-12
-7.88829e-13
-1.92165e-12
-7.76374e-13
-1.61133e-12
-7.65713e-13
-1.30479e-12
-7.56679e-13
-1.0013e-12
-7.49169e-13
-7.00161e-13
-7.43199e-13
-4.0081e-13
-7.38796e-13
-1.02654e-13
-7.35909e-13
1.94964e-13
-7.34493e-13
4.92626e-13
-7.34563e-13
7.90861e-13
-7.36143e-13
1.0903e-12
-7.39225e-13
1.39162e-12
-7.43823e-13
1.69541e-12
-7.49968e-13
2.00224e-12
-7.57675e-13
2.31273e-12
-7.66942e-13
2.62759e-12
-7.77775e-13
2.94757e-12
-7.90236e-13
3.27333e-12
-8.04415e-13
3.60551e-12
-8.20382e-13
3.94486e-12
-8.38192e-13
4.29221e-12
-8.57912e-13
4.64837e-12
-8.7962e-13
5.01419e-12
-9.03405e-13
5.39057e-12
-9.2939e-13
5.77847e-12
-9.57725e-13
6.17889e-12
-9.88543e-13
6.59285e-12
-1.02197e-12
7.0215e-12
-1.05817e-12
7.46603e-12
-1.09737e-12
7.92769e-12
-1.13978e-12
8.40787e-12
-1.18556e-12
8.90805e-12
-1.23492e-12
9.4299e-12
-1.28816e-12
9.97514e-12
-1.34562e-12
1.05455e-11
-1.40765e-12
1.1143e-11
-1.47457e-12
1.17697e-11
-1.5468e-12
1.2428e-11
-1.62483e-12
1.31204e-11
-1.7091e-12
1.38494e-11
-1.80009e-12
1.46183e-11
-1.89828e-12
1.54302e-11
-2.00438e-12
1.62888e-11
-2.11923e-12
1.71977e-11
-2.24367e-12
1.81609e-11
-2.3785e-12
1.9183e-11
-2.52456e-12
2.02691e-11
-2.68283e-12
2.14244e-11
-2.85442e-12
2.2655e-11
-3.04052e-12
2.39673e-11
-3.24253e-12
2.53684e-11
-3.46208e-12
2.68659e-11
-3.70088e-12
2.84678e-11
-3.96053e-12
3.01833e-11
-4.24274e-12
3.20223e-11
-4.54946e-12
3.39955e-11
-4.88289e-12
3.61146e-11
-5.2453e-12
3.83921e-11
-5.63905e-12
4.08415e-11
-6.0667e-12
4.34773e-11
-6.53095e-12
4.63149e-11
-7.0345e-12
4.93708e-11
-7.57995e-12
5.26626e-11
-8.16982e-12
5.62087e-11
-8.80663e-12
6.00286e-11
-9.49277e-12
6.41422e-11
-1.02303e-11
6.857e-11
-1.10208e-11
7.33328e-11
-1.1865e-11
7.84514e-11
-1.27631e-11
8.39462e-11
-1.37145e-11
8.98362e-11
-1.47169e-11
9.61389e-11
-1.57665e-11
1.02869e-10
-1.68576e-11
1.10039e-10
-1.79821e-11
1.17655e-10
-1.91291e-11
1.25718e-10
-2.02848e-11
1.34222e-10
-2.14312e-11
1.43151e-10
-2.25463e-11
1.52481e-10
-2.36035e-11
1.62171e-10
-2.45708e-11
1.72169e-10
-2.5411e-11
1.82403e-10
-2.60812e-11
1.92784e-10
-2.65321e-11
2.03199e-10
-2.67089e-11
2.13512e-10
-2.65513e-11
2.23565e-10
-2.5994e-11
2.33171e-10
-2.49683e-11
2.42115e-10
-2.34034e-11
2.5016e-10
-2.12283e-11
2.5704e-10
-1.83756e-11
2.62469e-10
-1.47842e-11
2.66148e-10
-1.04047e-11
2.67762e-10
-5.20442e-12
2.67002e-10
8.25868e-13
2.63569e-10
7.66376e-12
2.57195e-10
1.52466e-11
2.47658e-10
2.34608e-11
2.3481e-10
3.21307e-11
2.18603e-10
4.10053e-11
1.99119e-10
4.97442e-11
1.76608e-10
5.7904e-11
1.51522e-10
6.49241e-11
1.24557e-10
7.01181e-11
9.6683e-11
7.26712e-11
6.91737e-11
7.16578e-11
4.36232e-11
6.60908e-11
2.19565e-11
5.50366e-11
6.46442e-12
3.78122e-11
1.43851e-11
-6.89895e-12
2.03321e-11
-2.32701e-11
5.13978e-11
-4.59447e-11
7.34406e-11
-7.24741e-11
8.72926e-11
-1.00887e-10
9.41039e-11
-1.29591e-10
9.51459e-11
-1.5733e-10
9.16762e-11
-1.83144e-10
8.48541e-11
-2.06345e-10
7.56996e-11
-2.26476e-10
6.50784e-11
-2.43279e-10
5.37017e-11
-2.56665e-10
4.21375e-11
-2.66673e-10
3.08261e-11
-2.73443e-10
2.00943e-11
-2.77192e-10
1.01732e-11
-2.78187e-10
1.21392e-12
-2.76725e-10
-6.69896e-12
-2.73122e-10
-1.35333e-11
-2.67692e-10
-1.92982e-11
-2.60743e-10
-2.40338e-11
-2.52567e-10
-2.78037e-11
-2.43437e-10
-3.06855e-11
-2.33598e-10
-3.27672e-11
-2.23273e-10
-3.41399e-11
-2.12653e-10
-3.48962e-11
-2.01908e-10
-3.51259e-11
-1.91178e-10
-3.49141e-11
-1.8058e-10
-3.434e-11
-1.70211e-10
-3.34752e-11
-1.60146e-10
-3.23848e-11
-1.50443e-10
-3.11246e-11
-1.41143e-10
-2.97447e-11
-1.32276e-10
-2.82864e-11
-1.23858e-10
-2.67851e-11
-1.15899e-10
-2.527e-11
-1.08397e-10
-2.37649e-11
-1.01348e-10
-2.22881e-11
-9.47399e-11
-2.08541e-11
-8.85584e-11
-1.9474e-11
-8.27863e-11
-1.81547e-11
-7.74043e-11
-1.69023e-11
-7.23917e-11
-1.57191e-11
-6.77274e-11
-1.46067e-11
-6.33906e-11
-1.35651e-11
-5.93603e-11
-1.25926e-11
-5.56155e-11
-1.16873e-11
-5.21361e-11
-1.08469e-11
-4.89035e-11
-1.00684e-11
-4.58998e-11
-9.34844e-12
-4.31074e-11
-8.6834e-12
-4.05101e-11
-8.06986e-12
-3.80931e-11
-7.50453e-12
-3.58424e-11
-6.98404e-12
-3.37448e-11
-6.50496e-12
-3.17881e-11
-6.06415e-12
-2.99615e-11
-5.65872e-12
-2.82545e-11
-5.28587e-12
-2.66576e-11
-4.94289e-12
-2.5162e-11
-4.62731e-12
-2.37597e-11
-4.33694e-12
-2.24434e-11
-4.06969e-12
-2.12064e-11
-3.82362e-12
-2.00423e-11
-3.59695e-12
-1.89457e-11
-3.38807e-12
-1.79112e-11
-3.19545e-12
-1.69341e-11
-3.01771e-12
-1.60099e-11
-2.85362e-12
-1.51345e-11
-2.7021e-12
-1.43044e-11
-2.56217e-12
-1.35162e-11
-2.43287e-12
-1.27667e-11
-2.31327e-12
-1.2053e-11
-2.20261e-12
-1.13722e-11
-2.10023e-12
-1.07222e-11
-2.00555e-12
-1.01005e-11
-1.91794e-12
-9.5051e-12
-1.83683e-12
-8.93399e-12
-1.76174e-12
-8.38526e-12
-1.69233e-12
-7.8572e-12
-1.62822e-12
-7.34836e-12
-1.56909e-12
-6.85728e-12
-1.51446e-12
-6.38254e-12
-1.46407e-12
-5.92277e-12
-1.41771e-12
-5.47671e-12
-1.37516e-12
-5.04331e-12
-1.33621e-12
-4.62145e-12
-1.3006e-12
-4.21003e-12
-1.26821e-12
-3.80807e-12
-1.23895e-12
-3.41468e-12
-1.21262e-12
-3.02901e-12
-1.189e-12
-2.65014e-12
-1.16798e-12
-2.27714e-12
-1.14953e-12
-1.9092e-12
-1.13364e-12
-1.54562e-12
-1.12024e-12
-1.18569e-12
-1.1092e-12
-8.28613e-13
-1.10043e-12
-4.73627e-13
-1.09391e-12
-1.2002e-13
-1.08962e-12
2.32928e-13
-1.08753e-12
5.85916e-13
-1.08766e-12
9.39604e-13
-1.09004e-12
1.29471e-12
-1.09463e-12
1.652e-12
-1.10141e-12
2.01223e-12
-1.11042e-12
2.3761e-12
-1.12173e-12
2.74437e-12
-1.13538e-12
3.1178e-12
-1.15139e-12
3.49725e-12
-1.1698e-12
3.88353e-12
-1.19075e-12
4.27743e-12
-1.21436e-12
4.67983e-12
-1.24073e-12
5.0917e-12
-1.26991e-12
5.51403e-12
-1.30201e-12
5.94778e-12
-1.33717e-12
6.394e-12
-1.37561e-12
6.85385e-12
-1.41752e-12
7.32853e-12
-1.46312e-12
7.81924e-12
-1.5126e-12
8.3273e-12
-1.5662e-12
8.85416e-12
-1.62418e-12
9.40136e-12
-1.68686e-12
9.97049e-12
-1.75458e-12
1.05633e-11
-1.82767e-12
1.11816e-11
-1.90651e-12
1.18275e-11
-1.99157e-12
1.25032e-11
-2.08335e-12
1.32109e-11
-2.18237e-12
1.39531e-11
-2.28918e-12
1.47327e-11
-2.40444e-12
1.55526e-11
-2.52893e-12
1.64159e-11
-2.66346e-12
1.73261e-11
-2.80876e-12
1.82869e-11
-2.96567e-12
1.93027e-11
-3.13529e-12
2.03778e-11
-3.3189e-12
2.15171e-11
-3.51779e-12
2.27259e-11
-3.73326e-12
2.40099e-11
-3.9668e-12
2.53756e-11
-4.22007e-12
2.68295e-11
-4.49485e-12
2.83794e-11
-4.79296e-12
3.00334e-11
-5.11654e-12
3.18006e-11
-5.46809e-12
3.36905e-11
-5.85021e-12
3.57136e-11
-6.26555e-12
3.78813e-11
-6.71694e-12
4.0206e-11
-7.20747e-12
4.27012e-11
-7.74042e-12
4.53811e-11
-8.3192e-12
4.82615e-11
-8.94736e-12
5.13588e-11
-9.62864e-12
5.46911e-11
-1.03669e-11
5.82771e-11
-1.1166e-11
6.21367e-11
-1.20296e-11
6.6291e-11
-1.29611e-11
7.07619e-11
-1.39637e-11
7.55719e-11
-1.50403e-11
8.07442e-11
-1.61928e-11
8.63018e-11
-1.74225e-11
9.22676e-11
-1.87291e-11
9.8664e-11
-2.01109e-11
1.05512e-10
-2.15645e-11
1.12829e-10
-2.3084e-11
1.20632e-10
-2.46603e-11
1.28931e-10
-2.62813e-11
1.37732e-10
-2.79305e-11
1.47034e-10
-2.95868e-11
1.56826e-10
-3.12239e-11
1.67089e-10
-3.2809e-11
1.77788e-10
-3.43031e-11
1.88876e-10
-3.56592e-11
2.00288e-10
-3.68228e-11
2.11938e-10
-3.77313e-11
2.23719e-10
-3.83135e-11
2.355e-10
-3.84904e-11
2.47124e-10
-3.81752e-11
2.58405e-10
-3.72747e-11
2.69128e-10
-3.56911e-11
2.79049e-10
-3.33244e-11
2.87896e-10
-3.00754e-11
2.9537e-10
-2.58506e-11
3.01153e-10
-2.05669e-11
3.04907e-10
-1.41588e-11
3.06289e-10
-6.58617e-12
3.04958e-10
2.15647e-12
3.00593e-10
1.20286e-11
2.92908e-10
2.29317e-11
2.81674e-10
3.46945e-11
2.66747e-10
4.70582e-11
2.48093e-10
5.96593e-11
2.25825e-10
7.20126e-11
2.00235e-10
8.3494e-11
1.71833e-10
9.33257e-11
1.41385e-10
1.00566e-10
1.09943e-10
1.04112e-10
7.88864e-11
1.02715e-10
4.99461e-11
9.50315e-11
2.52609e-11
7.97216e-11
7.47434e-12
5.55986e-11
2.18596e-11
-7.36471e-12
2.76973e-11
-2.49026e-11
6.89355e-11
-4.9185e-11
9.77228e-11
-7.75638e-11
1.15671e-10
-1.07938e-10
1.24478e-10
-1.38636e-10
1.25845e-10
-1.68347e-10
1.21387e-10
-1.9607e-10
1.12578e-10
-2.2108e-10
1.0071e-10
-2.42891e-10
8.68892e-11
-2.6122e-10
7.20303e-11
-2.75953e-10
5.68709e-11
-2.87115e-10
4.19886e-11
-2.94839e-10
2.78179e-11
-2.99337e-10
1.46707e-11
-3.00877e-10
2.75429e-12
-2.99766e-10
-7.81022e-12
-2.96327e-10
-1.69717e-11
-2.9089e-10
-2.47345e-11
-2.8378e-10
-3.11447e-11
-2.75305e-10
-3.6279e-11
-2.65755e-10
-4.02361e-11
-2.55394e-10
-4.3128e-11
-2.44461e-10
-4.50728e-11
-2.33167e-10
-4.61907e-11
-2.21693e-10
-4.65993e-11
-2.10197e-10
-4.64105e-11
-1.98807e-10
-4.5729e-11
-1.87632e-10
-4.46507e-11
-1.76756e-10
-4.32605e-11
-1.66245e-10
-4.16354e-11
-1.56149e-10
-3.98408e-11
-1.46502e-10
-3.79334e-11
-1.37326e-10
-3.5961e-11
-1.28634e-10
-3.39631e-11
-1.20426e-10
-3.19722e-11
-1.127e-10
-3.00135e-11
-1.05447e-10
-2.81079e-11
-9.86506e-11
-2.62694e-11
-9.22957e-11
-2.45102e-11
-8.63618e-11
-2.28362e-11
-8.08281e-11
-2.12531e-11
-7.56726e-11
-1.97624e-11
-7.08728e-11
-1.83643e-11
-6.64071e-11
-1.70581e-11
-6.22537e-11
-1.58412e-11
-5.83907e-11
-1.47099e-11
-5.4798e-11
-1.36608e-11
-5.14564e-11
-1.269e-11
-4.83472e-11
-1.17926e-11
-4.54531e-11
-1.0964e-11
-4.27577e-11
-1.02e-11
-4.02457e-11
-9.49599e-12
-3.7903e-11
-8.84759e-12
-3.57164e-11
-8.2507e-12
-3.36737e-11
-7.70141e-12
-3.17637e-11
-7.19594e-12
-2.99758e-11
-6.73074e-12
-2.83005e-11
-6.30258e-12
-2.6729e-11
-5.90844e-12
-2.52533e-11
-5.54551e-12
-2.38657e-11
-5.21117e-12
-2.25595e-11
-4.90308e-12
-2.13285e-11
-4.61908e-12
-2.01667e-11
-4.35714e-12
-1.90691e-11
-4.1154e-12
-1.80306e-11
-3.89213e-12
-1.70468e-11
-3.6859e-12
-1.61136e-11
-3.49535e-12
-1.52271e-11
-3.31926e-12
-1.4384e-11
-3.15641e-12
-1.3581e-11
-3.00571e-12
-1.2815e-11
-2.8662e-12
-1.20833e-11
-2.73711e-12
-1.13833e-11
-2.61768e-12
-1.07129e-11
-2.50721e-12
-1.00698e-11
-2.40499e-12
-9.45179e-12
-2.31039e-12
-8.85702e-12
-2.22291e-12
-8.28369e-12
-2.14216e-12
-7.73027e-12
-2.06769e-12
-7.19526e-12
-1.99906e-12
-6.67708e-12
-1.93589e-12
-6.17432e-12
-1.87787e-12
-5.68573e-12
-1.82478e-12
-5.21015e-12
-1.7763e-12
-4.74637e-12
-1.73214e-12
-4.29316e-12
-1.69212e-12
-3.84948e-12
-1.65612e-12
-3.41445e-12
-1.62397e-12
-2.98713e-12
-1.59544e-12
-2.5665e-12
-1.57038e-12
-2.15157e-12
-1.54872e-12
-1.74148e-12
-1.53038e-12
-1.33543e-12
-1.5153e-12
-9.32618e-13
-1.50336e-12
-5.32159e-13
-1.49449e-12
-1.33248e-13
-1.48863e-12
2.6489e-13
-1.48578e-12
6.63061e-13
-1.48596e-12
1.06208e-12
-1.48919e-12
1.46273e-12
-1.49544e-12
1.86584e-12
-1.50471e-12
2.2722e-12
-1.51701e-12
2.68266e-12
-1.5324e-12
3.0981e-12
-1.55096e-12
3.51938e-12
-1.57277e-12
3.94737e-12
-1.5979e-12
4.38302e-12
-1.62649e-12
4.82726e-12
-1.65867e-12
5.28112e-12
-1.69458e-12
5.74564e-12
-1.73434e-12
6.2219e-12
-1.77812e-12
6.71099e-12
-1.82612e-12
7.21408e-12
-1.87859e-12
7.73249e-12
-1.93578e-12
8.26756e-12
-1.99798e-12
8.82066e-12
-2.06551e-12
9.39326e-12
-2.13866e-12
9.98695e-12
-2.21778e-12
1.06035e-11
-2.30326e-12
1.12447e-11
-2.3956e-12
1.19124e-11
-2.4953e-12
1.26088e-11
-2.60285e-12
1.33362e-11
-2.71885e-12
1.4097e-11
-2.84401e-12
1.48936e-11
-2.97905e-12
1.5729e-11
-3.12472e-12
1.66061e-11
-3.2818e-12
1.75283e-11
-3.45131e-12
1.84994e-11
-3.6344e-12
1.9523e-11
-3.83224e-12
2.06032e-11
-4.04602e-12
2.17448e-11
-4.27708e-12
2.29525e-11
-4.52702e-12
2.4232e-11
-4.79756e-12
2.55891e-11
-5.09051e-12
2.70301e-11
-5.40787e-12
2.85622e-11
-5.75191e-12
3.01929e-11
-6.12518e-12
3.19302e-11
-6.53025e-12
3.37833e-11
-6.96983e-12
3.57619e-11
-7.44705e-12
3.78769e-11
-7.96532e-12
4.01396e-11
-8.52834e-12
4.25626e-11
-9.13992e-12
4.51594e-11
-9.80415e-12
4.79447e-11
-1.05254e-11
5.09341e-11
-1.13083e-11
5.41445e-11
-1.21575e-11
5.75938e-11
-1.3078e-11
6.13014e-11
-1.40745e-11
6.52877e-11
-1.51523e-11
6.9574e-11
-1.6316e-11
7.41829e-11
-1.75701e-11
7.91376e-11
-1.89187e-11
8.4462e-11
-2.0365e-11
9.01807e-11
-2.19116e-11
9.63178e-11
-2.35596e-11