/*--------------------------------*- C++ -*----------------------------------*\
| =========                 |                                                 |
| \\      /  F ield         | OpenFOAM: The Open Source CFD Toolbox           |
|  \\    /   O peration     | Version:  2412                                  |
|   \\  /    A nd           | Website:  www.openfoam.com                      |
|    \\/     M anipulation  |                                                 |
\*---------------------------------------------------------------------------*/
FoamFile
{
    version     2.0;
    format      ascii;
    arch        "LSB;label=32;scalar=64";
    class       volVectorField;
    location    "600";
    object      U;
}
// * * * * * * * * * * * * * * * * * * * * * * * * * * * * * * * * * * * * * //

dimensions      [0 1 -1 0 0 0 0];

internalField   nonuniform List<vector> 
40000
(
(4.2645e-08 -4.67832e-08 0)
(-2.14295e-07 3.38913e-08 0)
(-8.95965e-07 1.0453e-07 0)
(-1.86229e-06 1.44546e-07 0)
(-2.98404e-06 1.5991e-07 0)
(-4.15528e-06 1.58421e-07 0)
(-5.29803e-06 1.46592e-07 0)
(-6.35842e-06 1.28976e-07 0)
(-7.30187e-06 1.08504e-07 0)
(-8.10849e-06 8.72376e-08 0)
(-8.7693e-06 6.63475e-08 0)
(-9.28352e-06 4.66855e-08 0)
(-9.65603e-06 2.87046e-08 0)
(-9.89585e-06 1.2634e-08 0)
(-1.00145e-05 -1.39639e-09 0)
(-1.00252e-05 -1.33771e-08 0)
(-9.94183e-06 -2.33168e-08 0)
(-9.77803e-06 -3.14296e-08 0)
(-9.54748e-06 -3.78422e-08 0)
(-9.26288e-06 -4.26961e-08 0)
(-8.93602e-06 -4.61834e-08 0)
(-8.57754e-06 -4.84781e-08 0)
(-8.19698e-06 -4.97335e-08 0)
(-7.80251e-06 -5.01854e-08 0)
(-7.40139e-06 -4.99216e-08 0)
(-6.99952e-06 -4.90429e-08 0)
(-6.60179e-06 -4.77836e-08 0)
(-6.21235e-06 -4.61637e-08 0)
(-5.83424e-06 -4.42819e-08 0)
(-5.46987e-06 -4.22407e-08 0)
(-5.12098e-06 -4.00883e-08 0)
(-4.78874e-06 -3.78775e-08 0)
(-4.4739e-06 -3.5674e-08 0)
(-4.17674e-06 -3.3476e-08 0)
(-3.89723e-06 -3.13358e-08 0)
(-3.63517e-06 -2.93145e-08 0)
(-3.3901e-06 -2.73489e-08 0)
(-3.16141e-06 -2.55134e-08 0)
(-2.94841e-06 -2.37386e-08 0)
(-2.75034e-06 -2.21218e-08 0)
(-2.56636e-06 -2.05639e-08 0)
(-2.39564e-06 -1.91202e-08 0)
(-2.23736e-06 -1.7804e-08 0)
(-2.09064e-06 -1.65517e-08 0)
(-1.95473e-06 -1.53791e-08 0)
(-1.82878e-06 -1.4344e-08 0)
(-1.71211e-06 -1.33742e-08 0)
(-1.60402e-06 -1.24445e-08 0)
(-1.5038e-06 -1.16045e-08 0)
(-1.41082e-06 -1.08525e-08 0)
(-1.32455e-06 -1.01675e-08 0)
(-1.24446e-06 -9.53845e-09 0)
(-1.17001e-06 -8.95328e-09 0)
(-1.10073e-06 -8.41708e-09 0)
(-1.03622e-06 -7.93798e-09 0)
(-9.76121e-07 -7.49854e-09 0)
(-9.20039e-07 -7.08011e-09 0)
(-8.67639e-07 -6.69073e-09 0)
(-8.18637e-07 -6.33976e-09 0)
(-7.72759e-07 -6.0203e-09 0)
(-7.29741e-07 -5.72354e-09 0)
(-6.89348e-07 -5.45316e-09 0)
(-6.51379e-07 -5.21137e-09 0)
(-6.15653e-07 -4.99039e-09 0)
(-5.81992e-07 -4.7781e-09 0)
(-5.50229e-07 -4.57498e-09 0)
(-5.20213e-07 -4.38876e-09 0)
(-4.91804e-07 -4.22448e-09 0)
(-4.64881e-07 -4.07796e-09 0)
(-4.39334e-07 -3.94266e-09 0)
(-4.15064e-07 -3.81385e-09 0)
(-3.91976e-07 -3.69297e-09 0)
(-3.69979e-07 -3.5806e-09 0)
(-3.48987e-07 -3.47521e-09 0)
(-3.28922e-07 -3.37494e-09 0)
(-3.09716e-07 -3.28244e-09 0)
(-2.91306e-07 -3.19843e-09 0)
(-2.73631e-07 -3.12606e-09 0)
(-2.56634e-07 -3.06065e-09 0)
(-2.40268e-07 -3.00965e-09 0)
(-2.24491e-07 -2.95616e-09 0)
(-2.09254e-07 -2.89837e-09 0)
(-1.94515e-07 -2.82952e-09 0)
(-1.80216e-07 -2.76392e-09 0)
(-1.66322e-07 -2.72073e-09 0)
(-1.52809e-07 -2.69261e-09 0)
(-1.39647e-07 -2.67086e-09 0)
(-1.26809e-07 -2.64582e-09 0)
(-1.14259e-07 -2.61454e-09 0)
(-1.01964e-07 -2.58298e-09 0)
(-8.98991e-08 -2.54708e-09 0)
(-7.80255e-08 -2.5093e-09 0)
(-6.63112e-08 -2.48817e-09 0)
(-5.47453e-08 -2.48892e-09 0)
(-4.33152e-08 -2.49539e-09 0)
(-3.19961e-08 -2.49319e-09 0)
(-2.07587e-08 -2.4803e-09 0)
(-9.57373e-09 -2.46407e-09 0)
(1.58398e-09 -2.45433e-09 0)
(1.27345e-08 -2.4536e-09 0)
(2.38986e-08 -2.45598e-09 0)
(3.50973e-08 -2.45712e-09 0)
(4.63499e-08 -2.45952e-09 0)
(5.76801e-08 -2.4693e-09 0)
(6.91153e-08 -2.48996e-09 0)
(8.06769e-08 -2.51896e-09 0)
(9.23827e-08 -2.54969e-09 0)
(1.04257e-07 -2.57625e-09 0)
(1.16334e-07 -2.59591e-09 0)
(1.28647e-07 -2.61021e-09 0)
(1.41222e-07 -2.62472e-09 0)
(1.54079e-07 -2.64698e-09 0)
(1.67244e-07 -2.68277e-09 0)
(1.80748e-07 -2.73071e-09 0)
(1.94628e-07 -2.78245e-09 0)
(2.08918e-07 -2.83104e-09 0)
(2.23658e-07 -2.87916e-09 0)
(2.38888e-07 -2.93363e-09 0)
(2.54647e-07 -2.99749e-09 0)
(2.70972e-07 -3.06712e-09 0)
(2.87905e-07 -3.13932e-09 0)
(3.05497e-07 -3.21293e-09 0)
(3.23807e-07 -3.28783e-09 0)
(3.42896e-07 -3.36482e-09 0)
(3.62826e-07 -3.44602e-09 0)
(3.83663e-07 -3.53656e-09 0)
(4.05479e-07 -3.64129e-09 0)
(4.28343e-07 -3.76034e-09 0)
(4.52335e-07 -3.89253e-09 0)
(4.77546e-07 -4.03729e-09 0)
(5.04074e-07 -4.19127e-09 0)
(5.32028e-07 -4.35003e-09 0)
(5.61523e-07 -4.51198e-09 0)
(5.9269e-07 -4.68226e-09 0)
(6.25675e-07 -4.87552e-09 0)
(6.60628e-07 -5.10478e-09 0)
(6.97695e-07 -5.36636e-09 0)
(7.37037e-07 -5.64397e-09 0)
(7.78854e-07 -5.92412e-09 0)
(8.23378e-07 -6.20535e-09 0)
(8.70854e-07 -6.49809e-09 0)
(9.21535e-07 -6.81919e-09 0)
(9.75702e-07 -7.19323e-09 0)
(1.03366e-06 -7.64579e-09 0)
(1.09573e-06 -8.17154e-09 0)
(1.16223e-06 -8.72672e-09 0)
(1.23358e-06 -9.27342e-09 0)
(1.31023e-06 -9.81896e-09 0)
(1.39268e-06 -1.04048e-08 0)
(1.48143e-06 -1.1065e-08 0)
(1.57702e-06 -1.18125e-08 0)
(1.68005e-06 -1.26565e-08 0)
(1.79113e-06 -1.36048e-08 0)
(1.91096e-06 -1.46509e-08 0)
(2.04024e-06 -1.57756e-08 0)
(2.17976e-06 -1.69685e-08 0)
(2.33036e-06 -1.82406e-08 0)
(2.49289e-06 -1.96063e-08 0)
(2.66823e-06 -2.10716e-08 0)
(2.85728e-06 -2.26375e-08 0)
(3.06095e-06 -2.43009e-08 0)
(3.28017e-06 -2.60706e-08 0)
(3.51583e-06 -2.79719e-08 0)
(3.76876e-06 -3.00123e-08 0)
(4.03967e-06 -3.21724e-08 0)
(4.32919e-06 -3.4433e-08 0)
(4.63778e-06 -3.67741e-08 0)
(4.96569e-06 -3.91665e-08 0)
(5.31286e-06 -4.1589e-08 0)
(5.67889e-06 -4.40022e-08 0)
(6.06291e-06 -4.63403e-08 0)
(6.4636e-06 -4.8547e-08 0)
(6.87896e-06 -5.05509e-08 0)
(7.30627e-06 -5.22627e-08 0)
(7.74202e-06 -5.35946e-08 0)
(8.1817e-06 -5.4428e-08 0)
(8.61977e-06 -5.46205e-08 0)
(9.0496e-06 -5.40239e-08 0)
(9.46327e-06 -5.24738e-08 0)
(9.85167e-06 -4.98006e-08 0)
(1.02043e-05 -4.58212e-08 0)
(1.05095e-05 -4.03432e-08 0)
(1.07543e-05 -3.31737e-08 0)
(1.09248e-05 -2.41316e-08 0)
(1.10063e-05 -1.3067e-08 0)
(1.09838e-05 1.48943e-10 0)
(1.08424e-05 1.55766e-08 0)
(1.05679e-05 3.3198e-08 0)
(1.01481e-05 5.28808e-08 0)
(9.57372e-06 7.43214e-08 0)
(8.8398e-06 9.6999e-08 0)
(7.94795e-06 1.20022e-07 0)
(6.90864e-06 1.42007e-07 0)
(5.74438e-06 1.60786e-07 0)
(4.49371e-06 1.73072e-07 0)
(3.21595e-06 1.73979e-07 0)
(1.99668e-06 1.56473e-07 0)
(9.5125e-07 1.12063e-07 0)
(2.18628e-07 3.4642e-08 0)
(-5.00672e-08 -5.31196e-08 0)
(-4.78728e-08 2.14799e-07 0)
(-1.01526e-06 9.63269e-07 0)
(-2.85914e-06 1.60186e-06 0)
(-5.29914e-06 2.01028e-06 0)
(-8.07958e-06 2.2039e-06 0)
(-1.09829e-05 2.22617e-06 0)
(-1.38354e-05 2.1235e-06 0)
(-1.65091e-05 1.93565e-06 0)
(-1.89156e-05 1.69429e-06 0)
(-2.09993e-05 1.42395e-06 0)
(-2.27312e-05 1.14303e-06 0)
(-2.41024e-05 8.65047e-07 0)
(-2.51194e-05 5.99676e-07 0)
(-2.58001e-05 3.53481e-07 0)
(-2.61698e-05 1.30669e-07 0)
(-2.62591e-05 -6.64065e-08 0)
(-2.6101e-05 -2.36759e-07 0)
(-2.57294e-05 -3.8077e-07 0)
(-2.51782e-05 -4.99378e-07 0)
(-2.44796e-05 -5.94212e-07 0)
(-2.36639e-05 -6.67234e-07 0)
(-2.27587e-05 -7.20593e-07 0)
(-2.1789e-05 -7.5659e-07 0)
(-2.07767e-05 -7.77526e-07 0)
(-1.97409e-05 -7.85666e-07 0)
(-1.86978e-05 -7.83e-07 0)
(-1.76609e-05 -7.71569e-07 0)
(-1.66413e-05 -7.53024e-07 0)
(-1.56479e-05 -7.29014e-07 0)
(-1.46876e-05 -7.00893e-07 0)
(-1.37653e-05 -6.69856e-07 0)
(-1.28847e-05 -6.36929e-07 0)
(-1.20482e-05 -6.02941e-07 0)
(-1.12569e-05 -5.68553e-07 0)
(-1.05113e-05 -5.34361e-07 0)
(-9.81081e-06 -5.00857e-07 0)
(-9.15467e-06 -4.68301e-07 0)
(-8.54146e-06 -4.37012e-07 0)
(-7.96955e-06 -4.07113e-07 0)
(-7.43707e-06 -3.78798e-07 0)
(-6.94185e-06 -3.5198e-07 0)
(-6.48196e-06 -3.26927e-07 0)
(-6.05514e-06 -3.03413e-07 0)
(-5.65914e-06 -2.81503e-07 0)
(-5.29211e-06 -2.61173e-07 0)
(-4.95182e-06 -2.42292e-07 0)
(-4.63628e-06 -2.24826e-07 0)
(-4.34384e-06 -2.08714e-07 0)
(-4.07268e-06 -1.93841e-07 0)
(-3.82101e-06 -1.80133e-07 0)
(-3.58739e-06 -1.67547e-07 0)
(-3.37042e-06 -1.55977e-07 0)
(-3.1687e-06 -1.45317e-07 0)
(-2.98099e-06 -1.3553e-07 0)
(-2.80618e-06 -1.26568e-07 0)
(-2.64324e-06 -1.18342e-07 0)
(-2.49119e-06 -1.1077e-07 0)
(-2.34916e-06 -1.03814e-07 0)
(-2.21634e-06 -9.74312e-08 0)
(-2.09197e-06 -9.1559e-08 0)
(-1.97536e-06 -8.61458e-08 0)
(-1.86588e-06 -8.11673e-08 0)
(-1.76299e-06 -7.65999e-08 0)
(-1.66615e-06 -7.24056e-08 0)
(-1.5749e-06 -6.85365e-08 0)
(-1.48882e-06 -6.49597e-08 0)
(-1.4075e-06 -6.16522e-08 0)
(-1.33055e-06 -5.86e-08 0)
(-1.25762e-06 -5.57857e-08 0)
(-1.18842e-06 -5.31904e-08 0)
(-1.12268e-06 -5.0793e-08 0)
(-1.06015e-06 -4.85792e-08 0)
(-1.00058e-06 -4.65302e-08 0)
(-9.43737e-07 -4.46326e-08 0)
(-8.89419e-07 -4.28694e-08 0)
(-8.37436e-07 -4.12389e-08 0)
(-7.87613e-07 -3.97238e-08 0)
(-7.39789e-07 -3.8326e-08 0)
(-6.93812e-07 -3.70322e-08 0)
(-6.49537e-07 -3.58561e-08 0)
(-6.06829e-07 -3.4777e-08 0)
(-5.65575e-07 -3.37799e-08 0)
(-5.25678e-07 -3.2842e-08 0)
(-4.87029e-07 -3.1962e-08 0)
(-4.49501e-07 -3.11633e-08 0)
(-4.12981e-07 -3.0446e-08 0)
(-3.77387e-07 -2.9803e-08 0)
(-3.42652e-07 -2.92236e-08 0)
(-3.08702e-07 -2.87014e-08 0)
(-2.75447e-07 -2.82356e-08 0)
(-2.42812e-07 -2.78088e-08 0)
(-2.10727e-07 -2.74117e-08 0)
(-1.79112e-07 -2.7066e-08 0)
(-1.47887e-07 -2.6792e-08 0)
(-1.16983e-07 -2.65843e-08 0)
(-8.63543e-08 -2.64245e-08 0)
(-5.59535e-08 -2.6299e-08 0)
(-2.57189e-08 -2.62076e-08 0)
(4.42496e-09 -2.61594e-08 0)
(3.45536e-08 -2.61592e-08 0)
(6.47288e-08 -2.62053e-08 0)
(9.49969e-08 -2.62968e-08 0)
(1.25404e-07 -2.64317e-08 0)
(1.56013e-07 -2.66091e-08 0)
(1.86904e-07 -2.68354e-08 0)
(2.18148e-07 -2.7118e-08 0)
(2.49803e-07 -2.74566e-08 0)
(2.81933e-07 -2.78438e-08 0)
(3.14613e-07 -2.82725e-08 0)
(3.47916e-07 -2.87432e-08 0)
(3.81907e-07 -2.92638e-08 0)
(4.16651e-07 -2.98429e-08 0)
(4.5223e-07 -3.04871e-08 0)
(4.88743e-07 -3.11992e-08 0)
(5.2629e-07 -3.19773e-08 0)
(5.64959e-07 -3.28183e-08 0)
(6.04836e-07 -3.37258e-08 0)
(6.4603e-07 -3.47096e-08 0)
(6.88659e-07 -3.57816e-08 0)
(7.32838e-07 -3.69476e-08 0)
(7.78676e-07 -3.82114e-08 0)
(8.26306e-07 -3.95745e-08 0)
(8.75882e-07 -4.10405e-08 0)
(9.27571e-07 -4.26163e-08 0)
(9.81535e-07 -4.43102e-08 0)
(1.03795e-06 -4.61346e-08 0)
(1.09701e-06 -4.81066e-08 0)
(1.15892e-06 -5.02411e-08 0)
(1.2239e-06 -5.25518e-08 0)
(1.2922e-06 -5.5054e-08 0)
(1.36409e-06 -5.77621e-08 0)
(1.43986e-06 -6.06893e-08 0)
(1.51982e-06 -6.38457e-08 0)
(1.6043e-06 -6.72408e-08 0)
(1.69367e-06 -7.09049e-08 0)
(1.78837e-06 -7.48919e-08 0)
(1.88884e-06 -7.92472e-08 0)
(1.99554e-06 -8.39899e-08 0)
(2.109e-06 -8.91288e-08 0)
(2.2298e-06 -9.46853e-08 0)
(2.35856e-06 -1.00697e-07 0)
(2.49596e-06 -1.07205e-07 0)
(2.64275e-06 -1.14265e-07 0)
(2.79981e-06 -1.21978e-07 0)
(2.96807e-06 -1.30438e-07 0)
(3.14849e-06 -1.39683e-07 0)
(3.34207e-06 -1.4972e-07 0)
(3.54996e-06 -1.6059e-07 0)
(3.77343e-06 -1.72383e-07 0)
(4.01387e-06 -1.85203e-07 0)
(4.27275e-06 -1.99137e-07 0)
(4.55166e-06 -2.14283e-07 0)
(4.85231e-06 -2.30751e-07 0)
(5.17654e-06 -2.48635e-07 0)
(5.52626e-06 -2.68006e-07 0)
(5.90349e-06 -2.88921e-07 0)
(6.31037e-06 -3.1145e-07 0)
(6.74915e-06 -3.35671e-07 0)
(7.22213e-06 -3.61643e-07 0)
(7.73164e-06 -3.89389e-07 0)
(8.28001e-06 -4.18887e-07 0)
(8.86952e-06 -4.50088e-07 0)
(9.50241e-06 -4.82935e-07 0)
(1.01807e-05 -5.17312e-07 0)
(1.09062e-05 -5.53006e-07 0)
(1.16803e-05 -5.89722e-07 0)
(1.25038e-05 -6.27071e-07 0)
(1.33772e-05 -6.64538e-07 0)
(1.42998e-05 -7.01512e-07 0)
(1.52702e-05 -7.37221e-07 0)
(1.62857e-05 -7.70694e-07 0)
(1.73421e-05 -8.00815e-07 0)
(1.84337e-05 -8.26264e-07 0)
(1.95527e-05 -8.45503e-07 0)
(2.06891e-05 -8.56834e-07 0)
(2.18306e-05 -8.58325e-07 0)
(2.29621e-05 -8.47842e-07 0)
(2.40655e-05 -8.231e-07 0)
(2.51197e-05 -7.81669e-07 0)
(2.61005e-05 -7.21085e-07 0)
(2.69805e-05 -6.38897e-07 0)
(2.77291e-05 -5.32763e-07 0)
(2.83135e-05 -4.00605e-07 0)
(2.86982e-05 -2.40766e-07 0)
(2.88466e-05 -5.22523e-08 0)
(2.87219e-05 1.65043e-07 0)
(2.82885e-05 4.10011e-07 0)
(2.75138e-05 6.79932e-07 0)
(2.63709e-05 9.70036e-07 0)
(2.48416e-05 1.2729e-06 0)
(2.292e-05 1.57782e-06 0)
(2.06174e-05 1.86985e-06 0)
(1.79671e-05 2.12882e-06 0)
(1.50315e-05 2.32801e-06 0)
(1.19088e-05 2.43293e-06 0)
(8.7398e-06 2.40066e-06 0)
(5.71453e-06 2.18146e-06 0)
(3.06963e-06 1.72924e-06 0)
(1.08047e-06 1.0302e-06 0)
(4.74342e-08 2.19827e-07 0)
(-1.29124e-07 9.4645e-07 0)
(-1.75e-06 2.83941e-06 0)
(-4.55405e-06 4.33004e-06 0)
(-8.13677e-06 5.29207e-06 0)
(-1.21626e-05 5.76393e-06 0)
(-1.63532e-05 5.83218e-06 0)
(-2.04791e-05 5.59322e-06 0)
(-2.43656e-05 5.13516e-06 0)
(-2.78868e-05 4.53254e-06 0)
(-3.09602e-05 3.84559e-06 0)
(-3.35388e-05 3.12165e-06 0)
(-3.56044e-05 2.39675e-06 0)
(-3.71611e-05 1.6976e-06 0)
(-3.82301e-05 1.04299e-06 0)
(-3.88443e-05 4.4553e-07 0)
(-3.90446e-05 -8.73193e-08 0)
(-3.88772e-05 -5.51897e-07 0)
(-3.83898e-05 -9.47813e-07 0)
(-3.76307e-05 -1.27689e-06 0)
(-3.66466e-05 -1.54277e-06 0)
(-3.54816e-05 -1.75011e-06 0)
(-3.41763e-05 -1.90438e-06 0)
(-3.27679e-05 -2.01146e-06 0)
(-3.12892e-05 -2.07708e-06 0)
(-2.97688e-05 -2.1073e-06 0)
(-2.82314e-05 -2.10754e-06 0)
(-2.66976e-05 -2.08303e-06 0)
(-2.51846e-05 -2.03852e-06 0)
(-2.37064e-05 -1.97827e-06 0)
(-2.22736e-05 -1.90603e-06 0)
(-2.08944e-05 -1.82513e-06 0)
(-1.95748e-05 -1.73839e-06 0)
(-1.83187e-05 -1.64815e-06 0)
(-1.71283e-05 -1.55632e-06 0)
(-1.60048e-05 -1.46463e-06 0)
(-1.49478e-05 -1.37416e-06 0)
(-1.39562e-05 -1.2861e-06 0)
(-1.30283e-05 -1.20112e-06 0)
(-1.21619e-05 -1.11974e-06 0)
(-1.13542e-05 -1.0424e-06 0)
(-1.06025e-05 -9.69173e-07 0)
(-9.90365e-06 -9.00411e-07 0)
(-9.25441e-06 -8.35848e-07 0)
(-8.6518e-06 -7.75606e-07 0)
(-8.09268e-06 -7.19633e-07 0)
(-7.57395e-06 -6.6759e-07 0)
(-7.09286e-06 -6.19401e-07 0)
(-6.64663e-06 -5.74903e-07 0)
(-6.23255e-06 -5.338e-07 0)
(-5.84819e-06 -4.959e-07 0)
(-5.49127e-06 -4.6104e-07 0)
(-5.1596e-06 -4.28954e-07 0)
(-4.85116e-06 -3.99418e-07 0)
(-4.56411e-06 -3.72283e-07 0)
(-4.29673e-06 -3.47371e-07 0)
(-4.04741e-06 -3.24483e-07 0)
(-3.81472e-06 -3.03454e-07 0)
(-3.59732e-06 -2.84142e-07 0)
(-3.39397e-06 -2.66397e-07 0)
(-3.20352e-06 -2.5007e-07 0)
(-3.02495e-06 -2.35043e-07 0)
(-2.85731e-06 -2.21215e-07 0)
(-2.69976e-06 -2.0849e-07 0)
(-2.55146e-06 -1.96778e-07 0)
(-2.41171e-06 -1.85995e-07 0)
(-2.27984e-06 -1.76059e-07 0)
(-2.15525e-06 -1.66883e-07 0)
(-2.03736e-06 -1.58398e-07 0)
(-1.92567e-06 -1.50556e-07 0)
(-1.81969e-06 -1.43314e-07 0)
(-1.71901e-06 -1.36629e-07 0)
(-1.62323e-06 -1.30458e-07 0)
(-1.53198e-06 -1.24748e-07 0)
(-1.44491e-06 -1.19462e-07 0)
(-1.3617e-06 -1.14566e-07 0)
(-1.28208e-06 -1.10035e-07 0)
(-1.20576e-06 -1.05843e-07 0)
(-1.13251e-06 -1.01963e-07 0)
(-1.0621e-06 -9.83727e-08 0)
(-9.94321e-07 -9.50544e-08 0)
(-9.28945e-07 -9.20022e-08 0)
(-8.6578e-07 -8.92021e-08 0)
(-8.0466e-07 -8.66327e-08 0)
(-7.45438e-07 -8.4259e-08 0)
(-6.87957e-07 -8.20666e-08 0)
(-6.32051e-07 -8.006e-08 0)
(-5.77578e-07 -7.82386e-08 0)
(-5.2442e-07 -7.65972e-08 0)
(-4.72453e-07 -7.51266e-08 0)
(-4.21537e-07 -7.38156e-08 0)
(-3.71544e-07 -7.2654e-08 0)
(-3.22383e-07 -7.16268e-08 0)
(-2.73966e-07 -7.07213e-08 0)
(-2.26181e-07 -6.9943e-08 0)
(-1.78908e-07 -6.93088e-08 0)
(-1.32043e-07 -6.88225e-08 0)
(-8.55015e-08 -6.84711e-08 0)
(-3.91998e-08 -6.82399e-08 0)
(6.96155e-09 -6.81227e-08 0)
(5.30875e-08 -6.81225e-08 0)
(9.92724e-08 -6.82498e-08 0)
(1.45602e-07 -6.85141e-08 0)
(1.92164e-07 -6.891e-08 0)
(2.39048e-07 -6.94233e-08 0)
(2.86351e-07 -7.00524e-08 0)
(3.34174e-07 -7.08095e-08 0)
(3.82623e-07 -7.17049e-08 0)
(4.31809e-07 -7.27408e-08 0)
(4.81844e-07 -7.39173e-08 0)
(5.32835e-07 -7.52401e-08 0)
(5.84884e-07 -7.67198e-08 0)
(6.38097e-07 -7.83618e-08 0)
(6.92595e-07 -8.01634e-08 0)
(7.48522e-07 -8.21279e-08 0)
(8.06023e-07 -8.42703e-08 0)
(8.65242e-07 -8.66077e-08 0)
(9.26321e-07 -8.91483e-08 0)
(9.89416e-07 -9.18985e-08 0)
(1.0547e-06 -9.48758e-08 0)
(1.12234e-06 -9.81039e-08 0)
(1.19255e-06 -1.01602e-07 0)
(1.26551e-06 -1.05381e-07 0)
(1.34146e-06 -1.09456e-07 0)
(1.42065e-06 -1.13852e-07 0)
(1.50333e-06 -1.18597e-07 0)
(1.58976e-06 -1.23713e-07 0)
(1.68025e-06 -1.2923e-07 0)
(1.7751e-06 -1.35187e-07 0)
(1.87465e-06 -1.4162e-07 0)
(1.97929e-06 -1.48565e-07 0)
(2.08942e-06 -1.5607e-07 0)
(2.2055e-06 -1.64192e-07 0)
(2.32802e-06 -1.7299e-07 0)
(2.4575e-06 -1.82504e-07 0)
(2.59446e-06 -1.92776e-07 0)
(2.73954e-06 -2.03885e-07 0)
(2.89342e-06 -2.15937e-07 0)
(3.05683e-06 -2.29029e-07 0)
(3.23062e-06 -2.43247e-07 0)
(3.41566e-06 -2.58693e-07 0)
(3.61292e-06 -2.75485e-07 0)
(3.82344e-06 -2.93727e-07 0)
(4.04832e-06 -3.13508e-07 0)
(4.2888e-06 -3.34965e-07 0)
(4.54628e-06 -3.5831e-07 0)
(4.82229e-06 -3.83763e-07 0)
(5.11845e-06 -4.11505e-07 0)
(5.4365e-06 -4.41696e-07 0)
(5.77832e-06 -4.7452e-07 0)
(6.14599e-06 -5.10189e-07 0)
(6.54172e-06 -5.48923e-07 0)
(6.96786e-06 -5.90945e-07 0)
(7.42698e-06 -6.36493e-07 0)
(7.9218e-06 -6.85822e-07 0)
(8.45523e-06 -7.39182e-07 0)
(9.03031e-06 -7.96776e-07 0)
(9.65021e-06 -8.58777e-07 0)
(1.03182e-05 -9.25346e-07 0)
(1.10377e-05 -9.96605e-07 0)
(1.18121e-05 -1.07262e-06 0)
(1.26449e-05 -1.15334e-06 0)
(1.35393e-05 -1.23861e-06 0)
(1.44984e-05 -1.32815e-06 0)
(1.55251e-05 -1.42154e-06 0)
(1.66217e-05 -1.51817e-06 0)
(1.77902e-05 -1.61718e-06 0)
(1.90315e-05 -1.71746e-06 0)
(2.03456e-05 -1.81755e-06 0)
(2.17314e-05 -1.91567e-06 0)
(2.31861e-05 -2.00963e-06 0)
(2.47051e-05 -2.09679e-06 0)
(2.62816e-05 -2.17404e-06 0)
(2.79065e-05 -2.23773e-06 0)
(2.95674e-05 -2.28368e-06 0)
(3.12489e-05 -2.30721e-06 0)
(3.29319e-05 -2.3031e-06 0)
(3.45932e-05 -2.26569e-06 0)
(3.62055e-05 -2.1889e-06 0)
(3.77371e-05 -2.0664e-06 0)
(3.91517e-05 -1.89178e-06 0)
(4.04085e-05 -1.65878e-06 0)
(4.1463e-05 -1.3616e-06 0)
(4.22667e-05 -9.95301e-07 0)
(4.27687e-05 -5.5621e-07 0)
(4.29168e-05 -4.25899e-08 0)
(4.26589e-05 5.44714e-07 0)
(4.19457e-05 1.20146e-06 0)
(4.07334e-05 1.919e-06 0)
(3.89872e-05 2.68315e-06 0)
(3.66858e-05 3.47283e-06 0)
(3.38264e-05 4.25853e-06 0)
(3.04312e-05 5.00054e-06 0)
(2.65534e-05 5.6471e-06 0)
(2.22857e-05 6.13247e-06 0)
(1.77672e-05 6.37579e-06 0)
(1.31901e-05 6.28208e-06 0)
(8.80499e-06 5.74831e-06 0)
(4.91458e-06 4.68347e-06 0)
(1.88035e-06 3.05197e-06 0)
(1.36279e-07 1.00107e-06 0)
(-1.817e-07 2.02425e-06 0)
(-2.2899e-06 5.43961e-06 0)
(-5.82428e-06 7.98406e-06 0)
(-1.02645e-05 9.61152e-06 0)
(-1.52098e-05 1.04148e-05 0)
(-2.03417e-05 1.05366e-05 0)
(-2.53972e-05 1.01298e-05 0)
(-3.01732e-05 9.33722e-06 0)
(-3.45206e-05 8.28299e-06 0)
(-3.8338e-05 7.07014e-06 0)
(-4.15652e-05 5.78148e-06 0)
(-4.41755e-05 4.48176e-06 0)
(-4.61695e-05 3.21983e-06 0)
(-4.75682e-05 2.03108e-06 0)
(-4.8408e-05 9.39873e-07 0)
(-4.87358e-05 -3.87938e-08 0)
(-4.86051e-05 -8.96976e-07 0)
(-4.8073e-05 -1.63265e-06 0)
(-4.71972e-05 -2.24811e-06 0)
(-4.60344e-05 -2.74896e-06 0)
(-4.46386e-05 -3.14309e-06 0)
(-4.30599e-05 -3.43983e-06 0)
(-4.13444e-05 -3.64949e-06 0)
(-3.95329e-05 -3.78245e-06 0)
(-3.76619e-05 -3.84928e-06 0)
(-3.57623e-05 -3.85992e-06 0)
(-3.38606e-05 -3.82394e-06 0)
(-3.1979e-05 -3.75001e-06 0)
(-3.01353e-05 -3.64595e-06 0)
(-2.83438e-05 -3.51872e-06 0)
(-2.66154e-05 -3.37451e-06 0)
(-2.49581e-05 -3.21851e-06 0)
(-2.33774e-05 -3.05521e-06 0)
(-2.18769e-05 -2.88836e-06 0)
(-2.0458e-05 -2.72094e-06 0)
(-1.9121e-05 -2.55536e-06 0)
(-1.7865e-05 -2.39366e-06 0)
(-1.6688e-05 -2.23715e-06 0)
(-1.55876e-05 -2.08705e-06 0)
(-1.45606e-05 -1.944e-06 0)
(-1.36036e-05 -1.80857e-06 0)
(-1.2713e-05 -1.6809e-06 0)
(-1.18848e-05 -1.56112e-06 0)
(-1.11155e-05 -1.44913e-06 0)
(-1.04011e-05 -1.34475e-06 0)
(-9.73772e-06 -1.24781e-06 0)
(-9.12201e-06 -1.158e-06 0)
(-8.55054e-06 -1.07484e-06 0)
(-8.01995e-06 -9.98009e-07 0)
(-7.52716e-06 -9.27178e-07 0)
(-7.06926e-06 -8.61932e-07 0)
(-6.64353e-06 -8.01845e-07 0)
(-6.24746e-06 -7.46566e-07 0)
(-5.8787e-06 -6.95745e-07 0)
(-5.53507e-06 -6.49024e-07 0)
(-5.21455e-06 -6.06075e-07 0)
(-4.91532e-06 -5.66608e-07 0)
(-4.63566e-06 -5.30336e-07 0)
(-4.374e-06 -4.96984e-07 0)
(-4.12888e-06 -4.66309e-07 0)
(-3.89899e-06 -4.38097e-07 0)
(-3.68314e-06 -4.12137e-07 0)
(-3.48022e-06 -3.88228e-07 0)
(-3.28921e-06 -3.66194e-07 0)
(-3.10919e-06 -3.4589e-07 0)
(-2.9393e-06 -3.27174e-07 0)
(-2.77875e-06 -3.09908e-07 0)
(-2.62682e-06 -2.93961e-07 0)
(-2.48286e-06 -2.79227e-07 0)
(-2.34626e-06 -2.65611e-07 0)
(-2.21649e-06 -2.53033e-07 0)
(-2.09302e-06 -2.414e-07 0)
(-1.97537e-06 -2.30641e-07 0)
(-1.86311e-06 -2.20677e-07 0)
(-1.75583e-06 -2.1146e-07 0)
(-1.65317e-06 -2.02928e-07 0)
(-1.55477e-06 -1.95045e-07 0)
(-1.46031e-06 -1.87761e-07 0)
(-1.36951e-06 -1.81037e-07 0)
(-1.28208e-06 -1.7481e-07 0)
(-1.19778e-06 -1.6905e-07 0)
(-1.11635e-06 -1.63742e-07 0)
(-1.03755e-06 -1.58872e-07 0)
(-9.61167e-07 -1.54412e-07 0)
(-8.8702e-07 -1.50321e-07 0)
(-8.1491e-07 -1.46579e-07 0)
(-7.44654e-07 -1.43175e-07 0)
(-6.76097e-07 -1.40094e-07 0)
(-6.09074e-07 -1.37311e-07 0)
(-5.43415e-07 -1.34809e-07 0)
(-4.78961e-07 -1.32594e-07 0)
(-4.15565e-07 -1.30669e-07 0)
(-3.53099e-07 -1.29013e-07 0)
(-2.91445e-07 -1.27601e-07 0)
(-2.30472e-07 -1.26425e-07 0)
(-1.70041e-07 -1.25493e-07 0)
(-1.10024e-07 -1.24809e-07 0)
(-5.03019e-08 -1.24364e-07 0)
(9.24689e-09 -1.24145e-07 0)
(6.87429e-08 -1.2415e-07 0)
(1.283e-07 -1.24387e-07 0)
(1.88038e-07 -1.24868e-07 0)
(2.48086e-07 -1.25595e-07 0)
(3.08566e-07 -1.26561e-07 0)
(3.69595e-07 -1.27763e-07 0)
(4.31295e-07 -1.29204e-07 0)
(4.93798e-07 -1.30889e-07 0)
(5.57246e-07 -1.32825e-07 0)
(6.21782e-07 -1.35021e-07 0)
(6.87539e-07 -1.37493e-07 0)
(7.54657e-07 -1.40262e-07 0)
(8.2329e-07 -1.43338e-07 0)
(8.93599e-07 -1.46723e-07 0)
(9.65751e-07 -1.50421e-07 0)
(1.03992e-06 -1.54455e-07 0)
(1.1163e-06 -1.58855e-07 0)
(1.19508e-06 -1.63645e-07 0)
(1.27647e-06 -1.68842e-07 0)
(1.36068e-06 -1.7447e-07 0)
(1.44793e-06 -1.80559e-07 0)
(1.53848e-06 -1.87141e-07 0)
(1.63259e-06 -1.94246e-07 0)
(1.73055e-06 -2.01908e-07 0)
(1.83267e-06 -2.10177e-07 0)
(1.93929e-06 -2.19106e-07 0)
(2.05076e-06 -2.28744e-07 0)
(2.16744e-06 -2.39146e-07 0)
(2.28975e-06 -2.50378e-07 0)
(2.41813e-06 -2.62506e-07 0)
(2.55307e-06 -2.75596e-07 0)
(2.69507e-06 -2.89723e-07 0)
(2.8447e-06 -3.04983e-07 0)
(3.00262e-06 -3.21493e-07 0)
(3.1695e-06 -3.39375e-07 0)
(3.34605e-06 -3.58737e-07 0)
(3.53304e-06 -3.79702e-07 0)
(3.73133e-06 -4.02411e-07 0)
(3.94189e-06 -4.27019e-07 0)
(4.16575e-06 -4.53701e-07 0)
(4.40403e-06 -4.82651e-07 0)
(4.65797e-06 -5.14106e-07 0)
(4.92895e-06 -5.48326e-07 0)
(5.21842e-06 -5.8555e-07 0)
(5.52794e-06 -6.25996e-07 0)
(5.8592e-06 -6.69931e-07 0)
(6.21413e-06 -7.17686e-07 0)
(6.5948e-06 -7.69628e-07 0)
(7.00344e-06 -8.2612e-07 0)
(7.44244e-06 -8.87534e-07 0)
(7.91443e-06 -9.54273e-07 0)
(8.4222e-06 -1.02676e-06 0)
(8.96875e-06 -1.10542e-06 0)
(9.55725e-06 -1.19064e-06 0)
(1.01911e-05 -1.28283e-06 0)
(1.0874e-05 -1.38242e-06 0)
(1.16096e-05 -1.48979e-06 0)
(1.24019e-05 -1.60526e-06 0)
(1.3255e-05 -1.72909e-06 0)
(1.4173e-05 -1.86143e-06 0)
(1.51602e-05 -2.00235e-06 0)
(1.62205e-05 -2.15177e-06 0)
(1.73581e-05 -2.30937e-06 0)
(1.85765e-05 -2.47458e-06 0)
(1.98792e-05 -2.64654e-06 0)
(2.12687e-05 -2.82402e-06 0)
(2.2747e-05 -3.00536e-06 0)
(2.4315e-05 -3.1884e-06 0)
(2.59722e-05 -3.37039e-06 0)
(2.77166e-05 -3.54791e-06 0)
(2.95441e-05 -3.71681e-06 0)
(3.14484e-05 -3.87215e-06 0)
(3.34203e-05 -4.00806e-06 0)
(3.54475e-05 -4.11782e-06 0)
(3.7514e-05 -4.1937e-06 0)
(3.95996e-05 -4.22703e-06 0)
(4.16798e-05 -4.2083e-06 0)
(4.37251e-05 -4.12714e-06 0)
(4.57009e-05 -3.97263e-06 0)
(4.75672e-05 -3.73341e-06 0)
(4.92786e-05 -3.3981e-06 0)
(5.07848e-05 -2.95576e-06 0)
(5.20305e-05 -2.39639e-06 0)
(5.29566e-05 -1.71179e-06 0)
(5.35015e-05 -8.96253e-07 0)
(5.36023e-05 5.22233e-08 0)
(5.31973e-05 1.13075e-06 0)
(5.2229e-05 2.33009e-06 0)
(5.06473e-05 3.63293e-06 0)
(4.84141e-05 5.01203e-06 0)
(4.55081e-05 6.42791e-06 0)
(4.1931e-05 7.8266e-06 0)
(3.77144e-05 9.13695e-06 0)
(3.29265e-05 1.02683e-05 0)
(2.76803e-05 1.11083e-05 0)
(2.21407e-05 1.15226e-05 0)
(1.65309e-05 1.13575e-05 0)
(1.11378e-05 1.04496e-05 0)
(6.30787e-06 8.64923e-06 0)
(2.47332e-06 5.86472e-06 0)
(1.94341e-07 2.16135e-06 0)
(-2.10091e-07 3.33455e-06 0)
(-2.63584e-06 8.55194e-06 0)
(-6.66971e-06 1.23022e-05 0)
(-1.17032e-05 1.46722e-05 0)
(-1.7285e-05 1.58396e-05 0)
(-2.30677e-05 1.60176e-05 0)
(-2.8767e-05 1.54226e-05 0)
(-3.41631e-05 1.42558e-05 0)
(-3.90928e-05 1.2694e-05 0)
(-4.34433e-05 1.08865e-05 0)
(-4.71451e-05 8.95506e-06 0)
(-5.0165e-05 6.99659e-06 0)
(-5.24996e-05 5.08539e-06 0)
(-5.41682e-05 3.2763e-06 0)
(-5.52078e-05 1.60774e-06 0)
(-5.56679e-05 1.04404e-07 0)
(-5.56059e-05 -1.22014e-06 0)
(-5.50836e-05 -2.36127e-06 0)
(-5.41645e-05 -3.32115e-06 0)
(-5.29116e-05 -4.10711e-06 0)
(-5.13851e-05 -4.73037e-06 0)
(-4.96415e-05 -5.20432e-06 0)
(-4.7733e-05 -5.54412e-06 0)
(-4.57062e-05 -5.76536e-06 0)
(-4.36027e-05 -5.88376e-06 0)
(-4.14586e-05 -5.91445e-06 0)
(-3.93046e-05 -5.8719e-06 0)
(-3.71665e-05 -5.76937e-06 0)
(-3.50656e-05 -5.61894e-06 0)
(-3.3019e-05 -5.43148e-06 0)
(-3.10396e-05 -5.21632e-06 0)
(-2.91376e-05 -4.98178e-06 0)
(-2.73197e-05 -4.73474e-06 0)
(-2.55907e-05 -4.48117e-06 0)
(-2.39527e-05 -4.22572e-06 0)
(-2.24068e-05 -3.97247e-06 0)
(-2.09522e-05 -3.72434e-06 0)
(-1.95871e-05 -3.48365e-06 0)
(-1.8309e-05 -3.25238e-06 0)
(-1.71145e-05 -3.03144e-06 0)
(-1.60001e-05 -2.822e-06 0)
(-1.49617e-05 -2.62425e-06 0)
(-1.3995e-05 -2.43851e-06 0)
(-1.3096e-05 -2.26472e-06 0)
(-1.22603e-05 -2.10247e-06 0)
(-1.14838e-05 -1.95159e-06 0)
(-1.07624e-05 -1.81166e-06 0)
(-1.00921e-05 -1.68206e-06 0)
(-9.46936e-06 -1.56223e-06 0)
(-8.89058e-06 -1.45162e-06 0)
(-8.35239e-06 -1.34964e-06 0)
(-7.85169e-06 -1.25569e-06 0)
(-7.38559e-06 -1.16923e-06 0)
(-6.95138e-06 -1.08968e-06 0)
(-6.54654e-06 -1.01651e-06 0)
(-6.16874e-06 -9.49224e-07 0)
(-5.81587e-06 -8.87371e-07 0)
(-5.48593e-06 -8.3049e-07 0)
(-5.1771e-06 -7.78161e-07 0)
(-4.8877e-06 -7.30018e-07 0)
(-4.6162e-06 -6.85726e-07 0)
(-4.36118e-06 -6.44959e-07 0)
(-4.12136e-06 -6.07413e-07 0)
(-3.89557e-06 -5.72812e-07 0)
(-3.68271e-06 -5.40909e-07 0)
(-3.48178e-06 -5.11477e-07 0)
(-3.29185e-06 -4.84316e-07 0)
(-3.11209e-06 -4.59236e-07 0)
(-2.94173e-06 -4.36071e-07 0)
(-2.78006e-06 -4.14665e-07 0)
(-2.62644e-06 -3.9488e-07 0)
(-2.48024e-06 -3.76579e-07 0)
(-2.34092e-06 -3.59646e-07 0)
(-2.20797e-06 -3.43974e-07 0)
(-2.08091e-06 -3.2947e-07 0)
(-1.9593e-06 -3.16045e-07 0)
(-1.84274e-06 -3.03626e-07 0)
(-1.73084e-06 -2.92154e-07 0)
(-1.62325e-06 -2.8156e-07 0)
(-1.51964e-06 -2.71781e-07 0)
(-1.41971e-06 -2.62742e-07 0)
(-1.3232e-06 -2.54401e-07 0)
(-1.22981e-06 -2.46726e-07 0)
(-1.13929e-06 -2.39687e-07 0)
(-1.0514e-06 -2.33243e-07 0)
(-9.65923e-07 -2.27358e-07 0)
(-8.82644e-07 -2.22011e-07 0)
(-8.01359e-07 -2.17176e-07 0)
(-7.21874e-07 -2.12815e-07 0)
(-6.44009e-07 -2.08896e-07 0)
(-5.67595e-07 -2.05409e-07 0)
(-4.9245e-07 -2.02357e-07 0)
(-4.18398e-07 -1.99735e-07 0)
(-3.45284e-07 -1.97523e-07 0)
(-2.72968e-07 -1.95695e-07 0)
(-2.01305e-07 -1.94241e-07 0)
(-1.30139e-07 -1.93161e-07 0)
(-5.9316e-08 -1.92454e-07 0)
(1.13083e-08 -1.92112e-07 0)
(8.18691e-08 -1.92134e-07 0)
(1.52498e-07 -1.92522e-07 0)
(2.23338e-07 -1.93275e-07 0)
(2.94542e-07 -1.94396e-07 0)
(3.66261e-07 -1.95891e-07 0)
(4.38632e-07 -1.97766e-07 0)
(5.11805e-07 -2.00027e-07 0)
(5.85935e-07 -2.0268e-07 0)
(6.61187e-07 -2.05732e-07 0)
(7.3772e-07 -2.09199e-07 0)
(8.15692e-07 -2.131e-07 0)
(8.95274e-07 -2.17455e-07 0)
(9.76653e-07 -2.2228e-07 0)
(1.06003e-06 -2.27593e-07 0)
(1.14559e-06 -2.33412e-07 0)
(1.23353e-06 -2.39766e-07 0)
(1.32407e-06 -2.46691e-07 0)
(1.41746e-06 -2.54224e-07 0)
(1.51394e-06 -2.62403e-07 0)
(1.61375e-06 -2.71268e-07 0)
(1.71717e-06 -2.80862e-07 0)
(1.8245e-06 -2.9123e-07 0)
(1.93604e-06 -3.02426e-07 0)
(2.05214e-06 -3.14507e-07 0)
(2.17316e-06 -3.2754e-07 0)
(2.29948e-06 -3.41603e-07 0)
(2.43153e-06 -3.56776e-07 0)
(2.56975e-06 -3.73147e-07 0)
(2.71461e-06 -3.90818e-07 0)
(2.86665e-06 -4.09897e-07 0)
(3.02644e-06 -4.30501e-07 0)
(3.19459e-06 -4.52754e-07 0)
(3.37175e-06 -4.76783e-07 0)
(3.55866e-06 -5.0274e-07 0)
(3.75612e-06 -5.30818e-07 0)
(3.96498e-06 -5.61225e-07 0)
(4.18616e-06 -5.94169e-07 0)
(4.42069e-06 -6.29866e-07 0)
(4.66966e-06 -6.68558e-07 0)
(4.93431e-06 -7.10516e-07 0)
(5.21592e-06 -7.56024e-07 0)
(5.5159e-06 -8.05395e-07 0)
(5.83586e-06 -8.59016e-07 0)
(6.17751e-06 -9.17319e-07 0)
(6.54273e-06 -9.80721e-07 0)
(6.93349e-06 -1.04964e-06 0)
(7.35197e-06 -1.12455e-06 0)
(7.80056e-06 -1.20597e-06 0)
(8.28186e-06 -1.29445e-06 0)
(8.79862e-06 -1.39056e-06 0)
(9.35385e-06 -1.49491e-06 0)
(9.95076e-06 -1.60815e-06 0)
(1.05928e-05 -1.73092e-06 0)
(1.12837e-05 -1.86387e-06 0)
(1.20272e-05 -2.00762e-06 0)
(1.28275e-05 -2.16276e-06 0)
(1.36889e-05 -2.32985e-06 0)
(1.46159e-05 -2.50938e-06 0)
(1.5613e-05 -2.70171e-06 0)
(1.66848e-05 -2.90704e-06 0)
(1.7836e-05 -3.12537e-06 0)
(1.90711e-05 -3.35649e-06 0)
(2.03946e-05 -3.59984e-06 0)
(2.18102e-05 -3.85447e-06 0)
(2.33215e-05 -4.11895e-06 0)
(2.49313e-05 -4.39129e-06 0)
(2.66411e-05 -4.66878e-06 0)
(2.84517e-05 -4.94798e-06 0)
(3.03619e-05 -5.22454e-06 0)
(3.23687e-05 -5.49303e-06 0)
(3.44669e-05 -5.74697e-06 0)
(3.66484e-05 -5.97857e-06 0)
(3.89021e-05 -6.17873e-06 0)
(4.1213e-05 -6.33698e-06 0)
(4.35621e-05 -6.44143e-06 0)
(4.59255e-05 -6.47877e-06 0)
(4.82746e-05 -6.43441e-06 0)
(5.0575e-05 -6.29261e-06 0)
(5.27868e-05 -6.03681e-06 0)
(5.4864e-05 -5.65e-06 0)
(5.67551e-05 -5.11526e-06 0)
(5.84027e-05 -4.41649e-06 0)
(5.97449e-05 -3.53927e-06 0)
(6.07156e-05 -2.47206e-06 0)
(6.12464e-05 -1.20747e-06 0)
(6.12682e-05 2.56138e-07 0)
(6.0714e-05 1.91271e-06 0)
(5.9522e-05 3.74643e-06 0)
(5.76397e-05 5.7292e-06 0)
(5.50284e-05 7.81799e-06 0)
(5.16687e-05 9.9518e-06 0)
(4.75667e-05 1.20486e-05 0)
(4.27613e-05 1.4002e-05 0)
(3.73307e-05 1.56787e-05 0)
(3.14006e-05 1.69163e-05 0)
(2.51513e-05 1.75235e-05 0)
(1.88241e-05 1.72837e-05 0)
(1.2729e-05 1.59658e-05 0)
(7.24417e-06 1.33456e-05 0)
(2.85741e-06 9.24163e-06 0)
(2.26232e-07 3.5786e-06 0)