/*--------------------------------*- C++ -*----------------------------------*\
| =========                 |                                                 |
| \\      /  F ield         | OpenFOAM: The Open Source CFD Toolbox           |
|  \\    /   O peration     | Version:  2412                                  |
|   \\  /    A nd           | Website:  www.openfoam.com                      |
|    \\/     M anipulation  |                                                 |
\*---------------------------------------------------------------------------*/
FoamFile
{
    version     2.0;
    format      ascii;
    arch        "LSB;label=32;scalar=64";
    class       volScalarField;
    location    "700";
    object      p;
}
// * * * * * * * * * * * * * * * * * * * * * * * * * * * * * * * * * * * * * //

dimensions      [0 2 -2 0 0 0 0];

internalField   nonuniform List<scalar> 
40000
(
0
-1.7464e-06
-3.35382e-06
-4.16324e-06
-3.83696e-06
-2.27115e-06
4.96279e-07
4.35728e-06
9.17046e-06
1.47746e-05
2.10162e-05
2.77425e-05
3.48174e-05
4.21175e-05
4.95328e-05
5.69723e-05
6.43539e-05
7.16148e-05
7.87001e-05
8.55696e-05
9.21906e-05
9.85401e-05
0.000104603
0.000110368
0.000115836
0.000121002
0.000125875
0.000130458
0.000134762
0.000138799
0.00014258
0.000146117
0.000149424
0.000152512
0.000155397
0.000158091
0.000160606
0.000162955
0.000165147
0.000167196
0.000169108
0.000170898
0.00017257
0.000174135
0.0001756
0.000176972
0.000178259
0.000179466
0.000180598
0.000181662
0.000182663
0.000183604
0.000184488
0.000185322
0.000186107
0.000186848
0.000187547
0.000188207
0.000188829
0.000189418
0.000189974
0.0001905
0.000190997
0.000191468
0.000191913
0.000192334
0.000192732
0.000193109
0.000193466
0.000193804
0.000194123
0.000194425
0.00019471
0.000194979
0.000195233
0.000195472
0.000195698
0.00019591
0.000196109
0.000196296
0.000196471
0.000196634
0.000196786
0.000196927
0.000197058
0.000197179
0.00019729
0.00019739
0.000197481
0.000197563
0.000197635
0.000197699
0.000197755
0.000197801
0.000197838
0.000197867
0.000197887
0.000197899
0.000197903
0.000197898
0.000197885
0.000197863
0.000197833
0.000197794
0.000197747
0.000197692
0.000197627
0.000197554
0.000197471
0.000197379
0.000197278
0.000197168
0.000197048
0.000196918
0.000196778
0.000196627
0.000196466
0.000196293
0.000196108
0.000195912
0.000195703
0.000195482
0.000195247
0.000194999
0.000194736
0.000194458
0.000194164
0.000193854
0.000193527
0.000193182
0.000192817
0.000192433
0.000192028
0.0001916
0.000191149
0.000190674
0.000190172
0.000189643
0.000189084
0.000188494
0.00018787
0.000187211
0.000186514
0.000185777
0.000184997
0.000184172
0.000183296
0.000182368
0.000181382
0.000180336
0.000179224
0.000178041
0.000176783
0.000175444
0.000174017
0.000172496
0.000170872
0.000169138
0.000167285
0.000165305
0.000163187
0.000160921
0.000158496
0.000155899
0.00015312
0.000150145
0.000146959
0.000143549
0.0001399
0.000136
0.000131833
0.000127385
0.000122645
0.0001176
0.00011224
0.00010656
0.000100554
9.42225e-05
8.75707e-05
8.0609e-05
7.33555e-05
6.58365e-05
5.80878e-05
5.01557e-05
4.2099e-05
3.39904e-05
2.59169e-05
1.79811e-05
1.03016e-05
3.01311e-06
-3.73397e-06
-9.77712e-06
-1.4946e-05
-1.90722e-05
-2.20021e-05
-2.36232e-05
-2.3903e-05
-2.29573e-05
-2.11671e-05
-1.92461e-05
-0.000205504
-0.000207334
-0.000208636
-0.0002091
-0.000208564
-0.000206955
-0.0002043
-0.00020068
-0.000196205
-0.000191004
-0.000185208
-0.000178945
-0.000172334
-0.000165485
-0.000158499
-0.000151459
-0.000144442
-0.000137509
-0.000130713
-0.000124095
-0.000117689
-0.00011152
-0.000105604
-9.99558e-05
-9.45785e-05
-8.94784e-05
-8.46512e-05
-8.00939e-05
-7.58001e-05
-7.17617e-05
-6.79679e-05
-6.44081e-05
-6.10718e-05
-5.79474e-05
-5.50237e-05
-5.22888e-05
-4.97302e-05
-4.73375e-05
-4.51002e-05
-4.30085e-05
-4.10518e-05
-3.92208e-05
-3.75078e-05
-3.59033e-05
-3.44008e-05
-3.29936e-05
-3.16733e-05
-3.04344e-05
-2.92723e-05
-2.81808e-05
-2.71548e-05
-2.619e-05
-2.52822e-05
-2.44277e-05
-2.36229e-05
-2.28642e-05
-2.21484e-05
-2.14732e-05
-2.0836e-05
-2.02343e-05
-1.96657e-05
-1.91286e-05
-1.86208e-05
-1.81406e-05
-1.76864e-05
-1.72568e-05
-1.68505e-05
-1.64663e-05
-1.6103e-05
-1.57595e-05
-1.54348e-05
-1.51277e-05
-1.48375e-05
-1.45636e-05
-1.43055e-05
-1.40624e-05
-1.38336e-05
-1.36182e-05
-1.34157e-05
-1.32258e-05
-1.30483e-05
-1.28828e-05
-1.27286e-05
-1.25854e-05
-1.2453e-05
-1.23309e-05
-1.22187e-05
-1.21161e-05
-1.20233e-05
-1.19405e-05
-1.18673e-05
-1.18031e-05
-1.17473e-05
-1.17001e-05
-1.1662e-05
-1.16327e-05
-1.16119e-05
-1.15996e-05
-1.1596e-05
-1.16012e-05
-1.16148e-05
-1.16364e-05
-1.16665e-05
-1.17054e-05
-1.17534e-05
-1.18101e-05
-1.18752e-05
-1.19491e-05
-1.20323e-05
-1.21251e-05
-1.22275e-05
-1.23394e-05
-1.24611e-05
-1.25928e-05
-1.2735e-05
-1.28878e-05
-1.30515e-05
-1.32266e-05
-1.34134e-05
-1.36122e-05
-1.38238e-05
-1.40487e-05
-1.4287e-05
-1.45391e-05
-1.48059e-05
-1.50882e-05
-1.53867e-05
-1.57018e-05
-1.60346e-05
-1.63859e-05
-1.67568e-05
-1.71479e-05
-1.75602e-05
-1.79954e-05
-1.84549e-05
-1.894e-05
-1.9452e-05
-1.99922e-05
-2.05628e-05
-2.11657e-05
-2.18027e-05
-2.24761e-05
-2.31887e-05
-2.39434e-05
-2.47427e-05
-2.55894e-05
-2.64865e-05
-2.74379e-05
-2.84475e-05
-2.952e-05
-3.06602e-05
-3.18732e-05
-3.31643e-05
-3.45392e-05
-3.60039e-05
-3.7565e-05
-3.923e-05
-4.10069e-05
-4.29041e-05
-4.49304e-05
-4.70953e-05
-4.94088e-05
-5.18822e-05
-5.45267e-05
-5.73536e-05
-6.03748e-05
-6.36026e-05
-6.705e-05
-7.07297e-05
-7.46538e-05
-7.88347e-05
-8.32834e-05
-8.80104e-05
-9.30243e-05
-9.83321e-05
-0.000103938
-0.000109842
-0.000116042
-0.00012253
-0.000129291
-0.000136307
-0.000143548
-0.000150978
-0.000158549
-0.000166206
-0.000173877
-0.000181483
-0.000188927
-0.000196102
-0.000202888
-0.000209155
-0.000214765
-0.000219575
-0.000223449
-0.000226269
-0.00022795
-0.000228471
-0.000227913
-0.00022647
-0.00022447
-0.000617963
-0.000620317
-0.000621743
-0.000622179
-0.000621636
-0.000620095
-0.0006176
-0.000614223
-0.000610062
-0.000605225
-0.000599825
-0.000593976
-0.000587783
-0.000581345
-0.000574755
-0.000568087
-0.000561415
-0.000554798
-0.000548287
-0.000541923
-0.00053574
-0.000529763
-0.000524011
-0.000518499
-0.000513236
-0.000508227
-0.000503471
-0.000498966
-0.000494711
-0.000490696
-0.000486916
-0.000483362
-0.000480021
-0.000476887
-0.000473947
-0.000471193
-0.000468611
-0.000466195
-0.00046393
-0.000461812
-0.000459827
-0.00045797
-0.000456229
-0.000454598
-0.000453071
-0.000451638
-0.000450295
-0.000449034
-0.00044785
-0.000446738
-0.000445693
-0.000444711
-0.000443786
-0.000442915
-0.000442096
-0.000441324
-0.000440596
-0.000439908
-0.00043926
-0.000438648
-0.00043807
-0.000437524
-0.000437008
-0.00043652
-0.000436059
-0.000435623
-0.000435211
-0.000434821
-0.000434452
-0.000434104
-0.000433775
-0.000433464
-0.00043317
-0.000432893
-0.000432631
-0.000432384
-0.000432153
-0.000431935
-0.00043173
-0.000431538
-0.000431359
-0.000431191
-0.000431035
-0.00043089
-0.000430756
-0.000430633
-0.00043052
-0.000430417
-0.000430323
-0.000430238
-0.000430164
-0.000430099
-0.000430043
-0.000429996
-0.000429957
-0.000429927
-0.000429907
-0.000429894
-0.00042989
-0.000429895
-0.000429908
-0.000429931
-0.000429961
-0.00043
-0.000430049
-0.000430106
-0.000430172
-0.000430247
-0.000430331
-0.000430424
-0.000430527
-0.00043064
-0.000430763
-0.000430896
-0.00043104
-0.000431194
-0.00043136
-0.000431537
-0.000431726
-0.000431927
-0.00043214
-0.000432368
-0.000432609
-0.000432864
-0.000433134
-0.00043342
-0.000433722
-0.000434041
-0.000434378
-0.000434734
-0.00043511
-0.000435506
-0.000435925
-0.000436366
-0.000436832
-0.000437324
-0.000437844
-0.000438393
-0.000438973
-0.000439586
-0.000440234
-0.000440919
-0.000441643
-0.00044241
-0.000443223
-0.000444085
-0.000444999
-0.000445968
-0.000446997
-0.00044809
-0.000449251
-0.000450486
-0.0004518
-0.000453199
-0.000454689
-0.000456278
-0.000457971
-0.000459777
-0.000461704
-0.000463761
-0.000465957
-0.0004683
-0.000470802
-0.000473473
-0.000476324
-0.000479366
-0.00048261
-0.000486068
-0.000489751
-0.000493669
-0.000497834
-0.000502254
-0.000506938
-0.000511892
-0.00051712
-0.000522625
-0.000528404
-0.000534452
-0.000540759
-0.000547308
-0.000554078
-0.000561041
-0.000568158
-0.000575383
-0.000582661
-0.000589926
-0.000597101
-0.0006041
-0.000610822
-0.000617161
-0.000623
-0.00062822
-0.000632696
-0.000636315
-0.000638971
-0.00064059
-0.000641129
-0.000640614
-0.000639042
-0.000636481
-0.00123696
-0.00123991
-0.00124165
-0.00124224
-0.00124183
-0.00124043
-0.00123813
-0.001235
-0.00123113
-0.00122663
-0.00122159
-0.00121612
-0.00121031
-0.00120426
-0.00119804
-0.00119173
-0.0011854
-0.00117909
-0.00117287
-0.00116677
-0.00116082
-0.00115505
-0.00114948
-0.00114413
-0.001139
-0.0011341
-0.00112944
-0.00112502
-0.00112083
-0.00111686
-0.00111312
-0.0011096
-0.00110628
-0.00110315
-0.00110022
-0.00109746
-0.00109488
-0.00109246
-0.00109018
-0.00108805
-0.00108606
-0.00108418
-0.00108243
-0.00108078
-0.00107924
-0.00107779
-0.00107643
-0.00107516
-0.00107396
-0.00107283
-0.00107178
-0.00107078
-0.00106984
-0.00106896
-0.00106813
-0.00106735
-0.00106661
-0.00106592
-0.00106526
-0.00106464
-0.00106406
-0.0010635
-0.00106298
-0.00106249
-0.00106202
-0.00106158
-0.00106116
-0.00106077
-0.0010604
-0.00106004
-0.00105971
-0.0010594
-0.0010591
-0.00105882
-0.00105856
-0.00105831
-0.00105807
-0.00105785
-0.00105765
-0.00105745
-0.00105727
-0.0010571
-0.00105695
-0.0010568
-0.00105666
-0.00105654
-0.00105643
-0.00105632
-0.00105623
-0.00105614
-0.00105607
-0.001056
-0.00105595
-0.0010559
-0.00105586
-0.00105583
-0.00105581
-0.0010558
-0.00105579
-0.0010558
-0.00105581
-0.00105583
-0.00105586
-0.0010559
-0.00105595
-0.00105601
-0.00105608
-0.00105615
-0.00105624
-0.00105633
-0.00105643
-0.00105655
-0.00105667
-0.00105681
-0.00105695
-0.00105711
-0.00105727
-0.00105745
-0.00105764
-0.00105784
-0.00105806
-0.00105829
-0.00105853
-0.00105879
-0.00105906
-0.00105935
-0.00105966
-0.00105998
-0.00106032
-0.00106068
-0.00106106
-0.00106146
-0.00106188
-0.00106233
-0.0010628
-0.0010633
-0.00106382
-0.00106438
-0.00106496
-0.00106558
-0.00106624
-0.00106693
-0.00106767
-0.00106844
-0.00106927
-0.00107014
-0.00107106
-0.00107205
-0.00107309
-0.00107419
-0.00107537
-0.00107662
-0.00107795
-0.00107937
-0.00108087
-0.00108248
-0.00108419
-0.00108601
-0.00108795
-0.00109003
-0.00109224
-0.00109459
-0.0010971
-0.00109978
-0.00110264
-0.00110568
-0.00110892
-0.00111236
-0.00111602
-0.00111991
-0.00112403
-0.00112839
-0.00113301
-0.00113787
-0.00114299
-0.00114837
-0.001154
-0.00115987
-0.00116598
-0.0011723
-0.00117881
-0.00118549
-0.00119229
-0.00119917
-0.00120608
-0.00121296
-0.00121973
-0.00122631
-0.00123262
-0.00123855
-0.001244
-0.00124886
-0.00125303
-0.00125639
-0.00125885
-0.00126031
-0.00126072
-0.00126005
-0.00125814
-0.00125492
-0.00206121
-0.00206467
-0.00206673
-0.00206754
-0.0020673
-0.0020661
-0.00206401
-0.00206113
-0.00205756
-0.00205338
-0.00204869
-0.00204358
-0.00203814
-0.00203246
-0.0020266
-0.00202064
-0.00201464
-0.00200866
-0.00200273
-0.0019969
-0.0019912
-0.00198565
-0.00198028
-0.00197511
-0.00197014
-0.00196538
-0.00196084
-0.00195652
-0.00195242
-0.00194852
-0.00194484
-0.00194137
-0.00193809
-0.001935
-0.00193209
-0.00192935
-0.00192678
-0.00192436
-0.0019221
-0.00191997
-0.00191797
-0.00191609
-0.00191434
-0.00191269
-0.00191113
-0.00190968
-0.00190831
-0.00190703
-0.00190583
-0.00190469
-0.00190363
-0.00190262
-0.00190168
-0.00190079
-0.00189996
-0.00189917
-0.00189842
-0.00189772
-0.00189706
-0.00189644
-0.00189585
-0.00189529
-0.00189476
-0.00189426
-0.00189379
-0.00189335
-0.00189293
-0.00189253
-0.00189216
-0.0018918
-0.00189147
-0.00189115
-0.00189085
-0.00189057
-0.0018903
-0.00189005
-0.00188982
-0.0018896
-0.00188939
-0.00188919
-0.00188901
-0.00188884
-0.00188868
-0.00188854
-0.0018884
-0.00188827
-0.00188816
-0.00188805
-0.00188796
-0.00188788
-0.0018878
-0.00188773
-0.00188768
-0.00188763
-0.00188759
-0.00188756
-0.00188754
-0.00188753
-0.00188752
-0.00188753
-0.00188754
-0.00188756
-0.00188759
-0.00188763
-0.00188768
-0.00188774
-0.00188781
-0.00188788
-0.00188797
-0.00188806
-0.00188817
-0.00188828
-0.0018884
-0.00188854
-0.00188869
-0.00188884
-0.00188901
-0.00188919
-0.00188938
-0.00188958
-0.0018898
-0.00189003
-0.00189028
-0.00189054
-0.00189081
-0.0018911
-0.00189141
-0.00189173
-0.00189208
-0.00189244
-0.00189282
-0.00189322
-0.00189365
-0.0018941
-0.00189457
-0.00189508
-0.00189561
-0.00189617
-0.00189676
-0.00189738
-0.00189804
-0.00189874
-0.00189948
-0.00190027
-0.0019011
-0.00190198
-0.00190291
-0.0019039
-0.00190495
-0.00190606
-0.00190725
-0.0019085
-0.00190984
-0.00191127
-0.00191278
-0.00191439
-0.00191611
-0.00191794
-0.00191989
-0.00192196
-0.00192417
-0.00192653
-0.00192903
-0.0019317
-0.00193454
-0.00193756
-0.00194077
-0.00194418
-0.0019478
-0.00195163
-0.00195568
-0.00195997
-0.00196448
-0.00196924
-0.00197423
-0.00197945
-0.00198491
-0.00199058
-0.00199647
-0.00200254
-0.00200878
-0.00201516
-0.00202164
-0.00202818
-0.00203473
-0.00204122
-0.0020476
-0.00205378
-0.00205969
-0.00206523
-0.00207031
-0.00207483
-0.00207868
-0.00208177
-0.002084
-0.00208527
-0.00208549
-0.00208459
-0.00208233
-0.00207857
-0.00308866
-0.00309247
-0.0030948
-0.00309581
-0.00309578
-0.00309478
-0.00309292
-0.0030903
-0.00308701
-0.00308314
-0.00307878
-0.00307403
-0.00306895
-0.00306362
-0.00305812
-0.00305251
-0.00304685
-0.00304118
-0.00303555
-0.00303
-0.00302456
-0.00301925
-0.0030141
-0.00300912
-0.00300433
-0.00299973
-0.00299533
-0.00299113
-0.00298714
-0.00298334
-0.00297974
-0.00297633
-0.00297311
-0.00297007
-0.0029672
-0.0029645
-0.00296196
-0.00295957
-0.00295732
-0.00295521
-0.00295322
-0.00295135
-0.0029496
-0.00294796
-0.00294641
-0.00294496
-0.00294359
-0.00294231
-0.0029411
-0.00293997
-0.0029389
-0.00293789
-0.00293695
-0.00293606
-0.00293522
-0.00293442
-0.00293368
-0.00293297
-0.00293231
-0.00293168
-0.00293109
-0.00293053
-0.00293
-0.0029295
-0.00292903
-0.00292858
-0.00292816
-0.00292776
-0.00292738
-0.00292703
-0.00292669
-0.00292637
-0.00292607
-0.00292579
-0.00292552
-0.00292527
-0.00292503
-0.00292481
-0.0029246
-0.00292441
-0.00292422
-0.00292405
-0.00292389
-0.00292375
-0.00292361
-0.00292348
-0.00292337
-0.00292326
-0.00292317
-0.00292308
-0.00292301
-0.00292294
-0.00292288
-0.00292284
-0.0029228
-0.00292277
-0.00292275
-0.00292273
-0.00292273
-0.00292273
-0.00292275
-0.00292277
-0.0029228
-0.00292284
-0.00292289
-0.00292295
-0.00292301
-0.00292309
-0.00292318
-0.00292327
-0.00292338
-0.00292349
-0.00292362
-0.00292375
-0.0029239
-0.00292405
-0.00292422
-0.0029244
-0.00292459
-0.0029248
-0.00292502
-0.00292525
-0.00292549
-0.00292575
-0.00292603
-0.00292632
-0.00292663
-0.00292696
-0.0029273
-0.00292766
-0.00292805
-0.00292845
-0.00292888
-0.00292933
-0.00292981
-0.00293031
-0.00293085
-0.00293141
-0.002932
-0.00293263
-0.00293329
-0.002934
-0.00293474
-0.00293553
-0.00293636
-0.00293724
-0.00293818
-0.00293917
-0.00294022
-0.00294134
-0.00294253
-0.00294379
-0.00294513
-0.00294655
-0.00294807
-0.00294968
-0.00295139
-0.00295321
-0.00295516
-0.00295722
-0.00295942
-0.00296175
-0.00296424
-0.00296688
-0.00296969
-0.00297267
-0.00297584
-0.00297919
-0.00298274
-0.00298649
-0.00299046
-0.00299464
-0.00299904
-0.00300366
-0.00300849
-0.00301354
-0.00301881
-0.00302427
-0.00302991
-0.00303573
-0.00304169
-0.00304776
-0.00305391
-0.00306011
-0.00306629
-0.00307241
-0.0030784
-0.00308419
-0.00308971
-0.00309488
-0.0030996
-0.00310378
-0.00310733
-0.00311015
-0.00311214
-0.0031132
-0.00311321
-0.00311208
-0.00310953
-0.00310538
-0.00431655
-0.00432057
-0.00432308
-0.00432427
-0.00432441
-0.00432361
-0.00432198
-0.00431961
-0.0043166
-0.00431304
-0.00430901
-0.00430459
-0.00429986
-0.00429489
-0.00428974
-0.00428448
-0.00427915
-0.0042738
-0.00426848
-0.00426322
-0.00425805
-0.00425299
-0.00424807
-0.00424331
-0.00423871
-0.00423428
-0.00423004
-0.00422598
-0.00422211
-0.00421843
-0.00421493
-0.00421161
-0.00420846
-0.00420549
-0.00420268
-0.00420003
-0.00419753
-0.00419518
-0.00419296
-0.00419088
-0.00418891
-0.00418707
-0.00418533
-0.0041837
-0.00418216
-0.00418072
-0.00417936
-0.00417809
-0.00417688
-0.00417575
-0.00417469
-0.00417369
-0.00417274
-0.00417185
-0.00417101
-0.00417022
-0.00416948
-0.00416877
-0.00416811
-0.00416748
-0.00416689
-0.00416633
-0.0041658
-0.0041653
-0.00416482
-0.00416438
-0.00416395
-0.00416356
-0.00416318
-0.00416282
-0.00416248
-0.00416217
-0.00416186
-0.00416158
-0.00416131
-0.00416106
-0.00416082
-0.0041606
-0.00416039
-0.0041602
-0.00416001
-0.00415984
-0.00415968
-0.00415954
-0.0041594
-0.00415927
-0.00415916
-0.00415905
-0.00415896
-0.00415887
-0.0041588
-0.00415873
-0.00415867
-0.00415862
-0.00415858
-0.00415855
-0.00415853
-0.00415852
-0.00415852
-0.00415852
-0.00415853
-0.00415856
-0.00415859
-0.00415863
-0.00415868
-0.00415873
-0.0041588
-0.00415888
-0.00415896
-0.00415906
-0.00415916
-0.00415928
-0.0041594
-0.00415954
-0.00415969
-0.00415984
-0.00416001
-0.00416019
-0.00416038
-0.00416059
-0.00416081
-0.00416104
-0.00416129
-0.00416155
-0.00416182
-0.00416211
-0.00416242
-0.00416275
-0.00416309
-0.00416346
-0.00416384
-0.00416425
-0.00416468
-0.00416513
-0.00416561
-0.00416611
-0.00416665
-0.00416721
-0.0041678
-0.00416843
-0.0041691
-0.0041698
-0.00417054
-0.00417133
-0.00417216
-0.00417304
-0.00417398
-0.00417497
-0.00417602
-0.00417713
-0.00417832
-0.00417957
-0.00418091
-0.00418232
-0.00418383
-0.00418543
-0.00418713
-0.00418894
-0.00419086
-0.00419291
-0.00419508
-0.00419738
-0.00419984
-0.00420244
-0.0042052
-0.00420812
-0.00421122
-0.0042145
-0.00421797
-0.00422163
-0.00422548
-0.00422954
-0.0042338
-0.00423826
-0.00424292
-0.00424778
-0.00425283
-0.00425806
-0.00426346
-0.004269
-0.00427466
-0.00428042
-0.00428624
-0.00429208
-0.0042979
-0.00430365
-0.00430926
-0.00431467
-0.00431981
-0.00432461
-0.00432899
-0.00433284
-0.0043361
-0.00433865
-0.0043404
-0.00434124
-0.00434106
-0.00433974
-0.00433699
-0.00433261
-0.00574154
-0.00574562
-0.00574824
-0.00574955
-0.00574985
-0.00574924
-0.00574782
-0.00574569
-0.00574295
-0.00573969
-0.00573598
-0.00573189
-0.0057275
-0.00572288
-0.00571808
-0.00571316
-0.00570816
-0.00570314
-0.00569813
-0.00569316
-0.00568827
-0.00568348
-0.0056788
-0.00567426
-0.00566987
-0.00566564
-0.00566157
-0.00565767
-0.00565395
-0.00565039
-0.00564701
-0.00564379
-0.00564074
-0.00563785
-0.00563511
-0.00563253
-0.00563009
-0.00562778
-0.00562561
-0.00562356
-0.00562163
-0.00561982
-0.00561811
-0.0056165
-0.00561498
-0.00561355
-0.00561221
-0.00561095
-0.00560976
-0.00560863
-0.00560758
-0.00560658
-0.00560564
-0.00560476
-0.00560393
-0.00560314
-0.0056024
-0.0056017
-0.00560103
-0.00560041
-0.00559982
-0.00559926
-0.00559873
-0.00559823
-0.00559776
-0.00559731
-0.00559689
-0.00559649
-0.00559612
-0.00559576
-0.00559542
-0.0055951
-0.0055948
-0.00559452
-0.00559425
-0.005594
-0.00559377
-0.00559354
-0.00559333
-0.00559314
-0.00559296
-0.00559279
-0.00559263
-0.00559248
-0.00559234
-0.00559222
-0.0055921
-0.005592
-0.0055919
-0.00559181
-0.00559174
-0.00559167
-0.00559161
-0.00559157
-0.00559153
-0.0055915
-0.00559148
-0.00559146
-0.00559146
-0.00559146
-0.00559148
-0.0055915
-0.00559153
-0.00559157
-0.00559162
-0.00559168
-0.00559174
-0.00559182
-0.00559191
-0.005592
-0.00559211
-0.00559222
-0.00559235
-0.00559248
-0.00559263
-0.00559279
-0.00559295
-0.00559313
-0.00559333
-0.00559353
-0.00559375
-0.00559398
-0.00559423
-0.00559449
-0.00559476
-0.00559505
-0.00559536
-0.00559569
-0.00559603
-0.0055964
-0.00559678
-0.00559719
-0.00559762
-0.00559807
-0.00559854
-0.00559905
-0.00559958
-0.00560014
-0.00560073
-0.00560136
-0.00560202
-0.00560272
-0.00560346
-0.00560425
-0.00560508
-0.00560595
-0.00560688
-0.00560787
-0.00560891
-0.00561002
-0.00561119
-0.00561244
-0.00561376
-0.00561516
-0.00561665
-0.00561824
-0.00561991
-0.0056217
-0.00562359
-0.0056256
-0.00562774
-0.00563
-0.0056324
-0.00563495
-0.00563765
-0.0056405
-0.00564352
-0.00564671
-0.00565007
-0.00565362
-0.00565734
-0.00566126
-0.00566536
-0.00566965
-0.00567412
-0.00567877
-0.0056836
-0.00568858
-0.00569371
-0.00569896
-0.00570432
-0.00570976
-0.00571524
-0.00572073
-0.00572619
-0.00573156
-0.0057368
-0.00574184
-0.00574661
-0.00575106
-0.00575509
-0.00575863
-0.00576159
-0.00576388
-0.00576541
-0.00576606
-0.00576571
-0.00576425
-0.00576139
-0.00575693
-0.00735975
-0.00736379
-0.00736641
-0.0073678
-0.00736822
-0.00736777
-0.00736655
-0.00736465
-0.00736218
-0.0073592
-0.0073558
-0.00735204
-0.00734799
-0.0073437
-0.00733925
-0.00733467
-0.00733001
-0.00732531
-0.00732062
-0.00731595
-0.00731135
-0.00730683
-0.00730241
-0.00729811
-0.00729394
-0.00728991
-0.00728603
-0.0072823
-0.00727873
-0.00727532
-0.00727207
-0.00726897
-0.00726603
-0.00726323
-0.00726058
-0.00725808
-0.0072557
-0.00725346
-0.00725135
-0.00724935
-0.00724746
-0.00724568
-0.00724401
-0.00724243
-0.00724094
-0.00723954
-0.00723822
-0.00723697
-0.0072358
-0.00723469
-0.00723365
-0.00723266
-0.00723174
-0.00723086
-0.00723003
-0.00722925
-0.00722852
-0.00722782
-0.00722717
-0.00722655
-0.00722596
-0.0072254
-0.00722488
-0.00722438
-0.00722391
-0.00722347
-0.00722305
-0.00722265
-0.00722228
-0.00722192
-0.00722159
-0.00722127
-0.00722097
-0.00722069
-0.00722042
-0.00722017
-0.00721994
-0.00721972
-0.00721951
-0.00721931
-0.00721913
-0.00721896
-0.0072188
-0.00721865
-0.00721852
-0.00721839
-0.00721828
-0.00721817
-0.00721808
-0.00721799
-0.00721792
-0.00721785
-0.00721779
-0.00721775
-0.00721771
-0.00721768
-0.00721766
-0.00721764
-0.00721764
-0.00721764
-0.00721766
-0.00721768
-0.00721771
-0.00721775
-0.0072178
-0.00721786
-0.00721792
-0.007218
-0.00721809
-0.00721818
-0.00721828
-0.0072184
-0.00721852
-0.00721866
-0.0072188
-0.00721896
-0.00721913
-0.00721931
-0.0072195
-0.00721971
-0.00721992
-0.00722015
-0.0072204
-0.00722066
-0.00722093
-0.00722122
-0.00722153
-0.00722186
-0.0072222
-0.00722256
-0.00722294
-0.00722335
-0.00722377
-0.00722422
-0.0072247
-0.0072252
-0.00722573
-0.00722629
-0.00722687
-0.0072275
-0.00722815
-0.00722885
-0.00722958
-0.00723036
-0.00723118
-0.00723205
-0.00723297
-0.00723395
-0.00723498
-0.00723608
-0.00723724
-0.00723847
-0.00723977
-0.00724115
-0.00724262
-0.00724417
-0.00724582
-0.00724757
-0.00724943
-0.0072514
-0.00725348
-0.00725569
-0.00725803
-0.00726051
-0.00726313
-0.0072659
-0.00726882
-0.00727191
-0.00727515
-0.00727857
-0.00728215
-0.00728591
-0.00728984
-0.00729394
-0.0072982
-0.00730263
-0.00730721
-0.00731194
-0.00731679
-0.00732175
-0.00732679
-0.0073319
-0.00733704
-0.00734218
-0.00734727
-0.00735228
-0.00735714
-0.00736181
-0.00736623
-0.00737032
-0.00737402
-0.00737725
-0.00737994
-0.00738198
-0.00738329
-0.00738377
-0.0073833
-0.00738176
-0.00737888
-0.00737446
-0.00916682
-0.00917071
-0.00917328
-0.00917469
-0.0091752
-0.00917488
-0.00917383
-0.00917216
-0.00916993
-0.00916724
-0.00916413
-0.00916069
-0.00915697
-0.00915302
-0.00914891
-0.00914467
-0.00914034
-0.00913598
-0.0091316
-0.00912724
-0.00912293
-0.00911869
-0.00911453
-0.00911048
-0.00910654
-0.00910273
-0.00909905
-0.00909551
-0.00909212
-0.00908886
-0.00908575
-0.00908278
-0.00907996
-0.00907728
-0.00907472
-0.00907231
-0.00907001
-0.00906784
-0.00906579
-0.00906385
-0.00906202
-0.00906029
-0.00905866
-0.00905712
-0.00905566
-0.00905429
-0.009053
-0.00905178
-0.00905063
-0.00904954
-0.00904851
-0.00904755
-0.00904663
-0.00904577
-0.00904495
-0.00904419
-0.00904346
-0.00904277
-0.00904212
-0.00904151
-0.00904093
-0.00904038
-0.00903986
-0.00903937
-0.0090389
-0.00903846
-0.00903805
-0.00903765
-0.00903728
-0.00903693
-0.0090366
-0.00903628
-0.00903598
-0.0090357
-0.00903544
-0.00903519
-0.00903496
-0.00903474
-0.00903453
-0.00903434
-0.00903415
-0.00903398
-0.00903383
-0.00903368
-0.00903354
-0.00903342
-0.00903331
-0.0090332
-0.00903311
-0.00903302
-0.00903295
-0.00903288
-0.00903282
-0.00903278
-0.00903274
-0.00903271
-0.00903269
-0.00903267
-0.00903267
-0.00903267
-0.00903269
-0.00903271
-0.00903274
-0.00903278
-0.00903283
-0.00903289
-0.00903295
-0.00903303
-0.00903311
-0.00903321
-0.00903331
-0.00903343
-0.00903355
-0.00903369
-0.00903383
-0.00903399
-0.00903415
-0.00903433
-0.00903452
-0.00903473
-0.00903494
-0.00903517
-0.00903542
-0.00903567
-0.00903595
-0.00903624
-0.00903654
-0.00903686
-0.00903721
-0.00903756
-0.00903794
-0.00903835
-0.00903877
-0.00903921
-0.00903968
-0.00904018
-0.00904071
-0.00904126
-0.00904184
-0.00904246
-0.00904311
-0.0090438
-0.00904452
-0.00904529
-0.0090461
-0.00904696
-0.00904787
-0.00904883
-0.00904985
-0.00905092
-0.00905206
-0.00905327
-0.00905455
-0.00905591
-0.00905734
-0.00905886
-0.00906048
-0.00906218
-0.00906399
-0.00906591
-0.00906793
-0.00907008
-0.00907235
-0.00907475
-0.00907728
-0.00907995
-0.00908277
-0.00908573
-0.00908885
-0.00909212
-0.00909554
-0.00909913
-0.00910287
-0.00910677
-0.00911081
-0.00911501
-0.00911933
-0.00912379
-0.00912835
-0.009133
-0.00913773
-0.00914251
-0.0091473
-0.00915208
-0.00915681
-0.00916145
-0.00916595
-0.00917025
-0.00917431
-0.00917806
-0.00918144
-0.00918438
-0.00918679
-0.00918861
-0.00918973
-0.00919006
-0.0091895
-0.00918794
-0.00918511
-0.00918084
-0.0111579
-0.0111616
-0.0111641
-0.0111655
-0.011166
-0.0111658
-0.0111649
-0.0111634
-0.0111615
-0.011159
-0.0111562
-0.0111531
-0.0111497
-0.0111461
-0.0111423
-0.0111384
-0.0111344
-0.0111304
-0.0111263
-0.0111223
-0.0111183
-0.0111143
-0.0111104
-0.0111066
-0.0111029
-0.0110993
-0.0110959
-0.0110925
-0.0110893
-0.0110862
-0.0110833
-0.0110804
-0.0110777
-0.0110752
-0.0110727
-0.0110704
-0.0110682
-0.0110661
-0.0110642
-0.0110623
-0.0110605
-0.0110588
-0.0110573
-0.0110558
-0.0110543
-0.011053
-0.0110517
-0.0110506
-0.0110494
-0.0110484
-0.0110474
-0.0110464
-0.0110455
-0.0110447
-0.0110439
-0.0110431
-0.0110424
-0.0110417
-0.0110411
-0.0110405
-0.0110399
-0.0110394
-0.0110389
-0.0110384
-0.0110379
-0.0110375
-0.0110371
-0.0110367
-0.0110363
-0.011036
-0.0110356
-0.0110353
-0.011035
-0.0110347
-0.0110345
-0.0110342
-0.011034
-0.0110338
-0.0110336
-0.0110334
-0.0110332
-0.011033
-0.0110329
-0.0110327
-0.0110326
-0.0110325
-0.0110324
-0.0110323
-0.0110322
-0.0110321
-0.011032
-0.0110319
-0.0110319
-0.0110318
-0.0110318
-0.0110318
-0.0110318
-0.0110317
-0.0110317
-0.0110317
-0.0110318
-0.0110318
-0.0110318
-0.0110318
-0.0110319
-0.011032
-0.011032
-0.0110321
-0.0110322
-0.0110323
-0.0110324
-0.0110325
-0.0110326
-0.0110327
-0.0110329
-0.011033
-0.0110332
-0.0110334
-0.0110336
-0.0110338
-0.011034
-0.0110342
-0.0110345
-0.0110347
-0.011035
-0.0110353
-0.0110356
-0.0110359
-0.0110362
-0.0110366
-0.011037
-0.0110374
-0.0110378
-0.0110382
-0.0110387
-0.0110392
-0.0110397
-0.0110402
-0.0110408
-0.0110414
-0.0110421
-0.0110428
-0.0110435
-0.0110442
-0.011045
-0.0110459
-0.0110468
-0.0110477
-0.0110487
-0.0110498
-0.0110509
-0.011052
-0.0110533
-0.0110546
-0.011056
-0.0110575
-0.0110591
-0.0110607
-0.0110625
-0.0110643
-0.0110663
-0.0110684
-0.0110706
-0.0110729
-0.0110753
-0.0110779
-0.0110805
-0.0110834
-0.0110864
-0.0110895
-0.0110927
-0.0110961
-0.0110997
-0.0111034
-0.0111072
-0.0111111
-0.0111152
-0.0111194
-0.0111236
-0.011128
-0.0111324
-0.0111368
-0.0111413
-0.0111457
-0.01115
-0.0111543
-0.0111584
-0.0111624
-0.0111661
-0.0111695
-0.0111726
-0.0111752
-0.0111774
-0.011179
-0.01118
-0.0111802
-0.0111796
-0.011178
-0.0111753
-0.0111713
-0.0133279
-0.0133313
-0.0133336
-0.0133349
-0.0133355
-0.0133354
-0.0133346
-0.0133333
-0.0133316
-0.0133294
-0.0133269
-0.013324
-0.013321
-0.0133177
-0.0133142
-0.0133107
-0.013307
-0.0133033
-0.0132996
-0.0132958
-0.0132921
-0.0132885
-0.0132849
-0.0132813
-0.0132779
-0.0132745
-0.0132713
-0.0132681
-0.0132651
-0.0132622
-0.0132594
-0.0132567
-0.0132542
-0.0132517
-0.0132494
-0.0132472
-0.0132451
-0.0132431
-0.0132412
-0.0132394
-0.0132377
-0.0132361
-0.0132346
-0.0132331
-0.0132318
-0.0132305
-0.0132293
-0.0132281
-0.013227
-0.013226
-0.013225
-0.0132241
-0.0132232
-0.0132224
-0.0132216
-0.0132209
-0.0132202
-0.0132195
-0.0132189
-0.0132183
-0.0132177
-0.0132172
-0.0132167
-0.0132162
-0.0132157
-0.0132153
-0.0132149
-0.0132145
-0.0132142
-0.0132138
-0.0132135
-0.0132132
-0.0132129
-0.0132126
-0.0132124
-0.0132121
-0.0132119
-0.0132117
-0.0132115
-0.0132113
-0.0132111
-0.0132109
-0.0132108
-0.0132106
-0.0132105
-0.0132104
-0.0132103
-0.0132102
-0.0132101
-0.01321
-0.0132099
-0.0132098
-0.0132098
-0.0132097
-0.0132097
-0.0132097
-0.0132097
-0.0132096
-0.0132096
-0.0132096
-0.0132097
-0.0132097
-0.0132097
-0.0132098
-0.0132098
-0.0132099
-0.0132099
-0.01321
-0.0132101
-0.0132102
-0.0132103
-0.0132104
-0.0132105
-0.0132106
-0.0132108
-0.0132109
-0.0132111
-0.0132113
-0.0132115
-0.0132117
-0.0132119
-0.0132121
-0.0132123
-0.0132126
-0.0132129
-0.0132131
-0.0132134
-0.0132138
-0.0132141
-0.0132144
-0.0132148
-0.0132152
-0.0132156
-0.0132161
-0.0132165
-0.013217
-0.0132175
-0.013218
-0.0132186
-0.0132192
-0.0132198
-0.0132205
-0.0132212
-0.013222
-0.0132227
-0.0132236
-0.0132244
-0.0132254
-0.0132263
-0.0132274
-0.0132284
-0.0132296
-0.0132308
-0.0132321
-0.0132334
-0.0132349
-0.0132364
-0.013238
-0.0132397
-0.0132415
-0.0132434
-0.0132453
-0.0132474
-0.0132497
-0.013252
-0.0132544
-0.013257
-0.0132597
-0.0132625
-0.0132654
-0.0132685
-0.0132717
-0.0132751
-0.0132785
-0.0132821
-0.0132858
-0.0132896
-0.0132935
-0.0132974
-0.0133015
-0.0133055
-0.0133096
-0.0133137
-0.0133178
-0.0133218
-0.0133257
-0.0133295
-0.0133331
-0.0133365
-0.0133395
-0.0133423
-0.0133447
-0.0133466
-0.013348
-0.0133488
-0.0133489
-0.0133483
-0.0133468
-0.0133443
-0.0133405
-0.0156712
-0.0156742
-0.0156763
-0.0156776
-0.0156782
-0.0156781
-0.0156775
-0.0156764
-0.0156748
-0.0156729
-0.0156706
-0.0156681
-0.0156653
-0.0156624
-0.0156592
-0.015656
-0.0156527
-0.0156493
-0.0156459
-0.0156425
-0.0156391
-0.0156357
-0.0156324
-0.0156291
-0.0156259
-0.0156228
-0.0156198
-0.0156168
-0.015614
-0.0156113
-0.0156087
-0.0156062
-0.0156038
-0.0156015
-0.0155993
-0.0155972
-0.0155952
-0.0155933
-0.0155915
-0.0155897
-0.0155881
-0.0155866
-0.0155851
-0.0155837
-0.0155824
-0.0155812
-0.01558
-0.0155789
-0.0155778
-0.0155768
-0.0155759
-0.015575
-0.0155741
-0.0155733
-0.0155726