/*--------------------------------*- C++ -*----------------------------------*\
| =========                 |                                                 |
| \\      /  F ield         | OpenFOAM: The Open Source CFD Toolbox           |
|  \\    /   O peration     | Version:  2412                                  |
|   \\  /    A nd           | Website:  www.openfoam.com                      |
|    \\/     M anipulation  |                                                 |
\*---------------------------------------------------------------------------*/
FoamFile
{
    version     2.0;
    format      ascii;
    arch        "LSB;label=32;scalar=64";
    class       volScalarField;
    location    "700";
    object      p_rgh;
}
// * * * * * * * * * * * * * * * * * * * * * * * * * * * * * * * * * * * * * //

dimensions      [0 2 -2 0 0 0 0];

internalField   nonuniform List<scalar> 
40000
(
5.18719e-05
5.01652e-05
4.85922e-05
4.78153e-05
4.81723e-05
4.97672e-05
5.25622e-05
5.64492e-05
6.1287e-05
6.69144e-05
7.31778e-05
7.99245e-05
8.70185e-05
9.43366e-05
0.000101769
0.000109224
0.00011662
0.000123894
0.000130992
0.000137873
0.000144504
0.000150863
0.000156935
0.000162708
0.000168183
0.000173356
0.000178235
0.000182823
0.000187133
0.000191174
0.000194959
0.0001985
0.000201809
0.000204901
0.000207788
0.000210485
0.000213002
0.000215352
0.000217546
0.000219596
0.000221509
0.000223301
0.000224973
0.000226539
0.000228005
0.000229377
0.000230665
0.000231872
0.000233005
0.000234069
0.00023507
0.000236011
0.000236896
0.000237729
0.000238515
0.000239256
0.000239955
0.000240614
0.000241237
0.000241826
0.000242382
0.000242908
0.000243405
0.000243876
0.000244321
0.000244742
0.000245141
0.000245518
0.000245874
0.000246212
0.000246531
0.000246833
0.000247118
0.000247387
0.000247641
0.00024788
0.000248106
0.000248318
0.000248518
0.000248705
0.000248879
0.000249042
0.000249194
0.000249336
0.000249466
0.000249587
0.000249698
0.000249799
0.00024989
0.000249971
0.000250043
0.000250107
0.000250163
0.000250209
0.000250246
0.000250275
0.000250296
0.000250307
0.000250311
0.000250306
0.000250293
0.000250272
0.000250242
0.000250203
0.000250155
0.0002501
0.000250036
0.000249962
0.000249879
0.000249788
0.000249687
0.000249577
0.000249457
0.000249327
0.000249186
0.000249035
0.000248874
0.000248701
0.000248517
0.00024832
0.000248111
0.00024789
0.000247656
0.000247407
0.000247144
0.000246866
0.000246572
0.000246263
0.000245935
0.00024559
0.000245226
0.000244841
0.000244436
0.000244009
0.000243558
0.000243082
0.000242581
0.000242051
0.000241492
0.000240902
0.000240278
0.000239619
0.000238922
0.000238185
0.000237405
0.000236579
0.000235704
0.000234775
0.000233789
0.000232742
0.00023163
0.000230447
0.000229189
0.00022785
0.000226422
0.0002249
0.000223275
0.00022154
0.000219687
0.000217705
0.000215586
0.000213318
0.000210891
0.000208293
0.000205512
0.000202534
0.000199345
0.000195932
0.00019228
0.000188376
0.000184204
0.000179752
0.000175006
0.000169955
0.000164589
0.000158901
0.000152887
0.000146547
0.000139885
0.000132913
0.000125648
0.000118117
0.000110355
0.000102408
9.43358e-05
8.62104e-05
7.81188e-05
7.01638e-05
6.24636e-05
5.51532e-05
4.83827e-05
4.23148e-05
3.71198e-05
3.2966e-05
3.00069e-05
2.83553e-05
2.80435e-05
2.89559e-05
3.07116e-05
3.25975e-05
0.000260809
0.000259326
0.000258332
0.000258157
0.000258969
0.000260839
0.000263741
0.000267595
0.00027229
0.000277699
0.00028369
0.000290137
0.00029692
0.000303929
0.000311065
0.000318245
0.000325392
0.000332445
0.000339351
0.000346072
0.000352572
0.000358828
0.000364823
0.000370544
0.000375987
0.000381147
0.000386028
0.000390635
0.000394973
0.000399051
0.000402881
0.000406473
0.000409838
0.000412988
0.000415934
0.000418689
0.000421266
0.000423674
0.000425925
0.000428029
0.000429996
0.000431837
0.000433558
0.000435169
0.000436678
0.00043809
0.000439415
0.000440658
0.000441823
0.000442917
0.000443946
0.000444913
0.000445822
0.000446678
0.000447484
0.000448244
0.00044896
0.000449636
0.000450274
0.000450876
0.000451445
0.000451983
0.000452491
0.000452971
0.000453426
0.000453855
0.000454262
0.000454646
0.000455009
0.000455353
0.000455678
0.000455985
0.000456275
0.000456549
0.000456807
0.00045705
0.000457279
0.000457494
0.000457697
0.000457887
0.000458064
0.00045823
0.000458384
0.000458527
0.000458659
0.000458781
0.000458894
0.000458996
0.000459089
0.000459172
0.000459245
0.000459309
0.000459365
0.000459412
0.00045945
0.00045948
0.000459501
0.000459513
0.000459516
0.000459511
0.000459498
0.000459476
0.000459446
0.000459407
0.000459359
0.000459302
0.000459237
0.000459163
0.00045908
0.000458987
0.000458885
0.000458773
0.000458651
0.00045852
0.000458377
0.000458225
0.000458061
0.000457886
0.000457699
0.0004575
0.000457289
0.000457064
0.000456826
0.000456573
0.000456307
0.000456024
0.000455726
0.000455411
0.000455078
0.000454726
0.000454356
0.000453964
0.000453552
0.000453117
0.000452657
0.000452172
0.00045166
0.000451119
0.000450548
0.000449945
0.000449308
0.000448634
0.00044792
0.000447165
0.000446365
0.000445517
0.000444618
0.000443665
0.000442654
0.000441579
0.000440436
0.00043922
0.000437925
0.000436546
0.000435076
0.000433509
0.000431838
0.000430053
0.000428147
0.00042611
0.000423934
0.000421607
0.000419118
0.000416456
0.00041361
0.000410566
0.000407313
0.000403838
0.000400126
0.000396167
0.000391947
0.000387454
0.000382678
0.000377611
0.000372243
0.000366572
0.000360596
0.000354317
0.000347743
0.000340887
0.000333769
0.000326416
0.000318866
0.000311165
0.000303368
0.000295545
0.000287778
0.000280161
0.000272801
0.000265817
0.000259341
0.000253509
0.000248465
0.000244342
0.000241262
0.000239306
0.000238498
0.000238757
0.000239889
0.00024157
0.000674901
0.000673486
0.000672904
0.000673268
0.00067457
0.00067683
0.000680008
0.000684029
0.0006888
0.00069421
0.00070015
0.000706506
0.000713174
0.000720055
0.00072706
0.000734113
0.000741142
0.000748091
0.000754909
0.000761556
0.000767999
0.000774215
0.000780186
0.000785897
0.000791342
0.000796517
0.000801423
0.000806063
0.000810442
0.000814566
0.000818445
0.000822089
0.000825508
0.000828714
0.000831716
0.000834526
0.000837157
0.000839616
0.000841919
0.000844071
0.000846085
0.000847968
0.000849731
0.000851381
0.000852925
0.000854372
0.000855728
0.000856999
0.000858192
0.000859312
0.000860363
0.000861351
0.000862281
0.000863156
0.000863978
0.000864753
0.000865484
0.000866173
0.000866823
0.000867436
0.000868015
0.000868562
0.000869079
0.000869567
0.000870029
0.000870465
0.000870878
0.000871268
0.000871637
0.000871986
0.000872315
0.000872626
0.00087292
0.000873197
0.000873459
0.000873705
0.000873937
0.000874155
0.000874359
0.000874551
0.000874731
0.000874899
0.000875055
0.0008752
0.000875334
0.000875457
0.00087557
0.000875673
0.000875767
0.000875851
0.000875926
0.000875991
0.000876047
0.000876094
0.000876132
0.000876162
0.000876183
0.000876195
0.000876199
0.000876195
0.000876181
0.000876159
0.000876128
0.000876089
0.000876041
0.000875984
0.000875918
0.000875843
0.000875759
0.000875666
0.000875562
0.00087545
0.000875327
0.000875194
0.00087505
0.000874896
0.00087473
0.000874553
0.000874364
0.000874163
0.000873949
0.000873722
0.000873481
0.000873226
0.000872956
0.00087267
0.000872368
0.000872049
0.000871712
0.000871356
0.00087098
0.000870583
0.000870164
0.000869722
0.000869256
0.000868764
0.000868243
0.000867694
0.000867113
0.000866499
0.00086585
0.000865164
0.000864437
0.000863668
0.000862853
0.000861988
0.00086107
0.000860096
0.000859062
0.000857962
0.000856794
0.000855551
0.000854227
0.000852816
0.000851311
0.000849707
0.000847995
0.000846168
0.000844216
0.000842131
0.000839902
0.000837522
0.000834978
0.000832259
0.000829353
0.00082625
0.000822937
0.000819401
0.000815631
0.000811615
0.000807341
0.0008028
0.000797982
0.000792879
0.000787486
0.0007818
0.000775822
0.000769556
0.000763011
0.000756201
0.000749147
0.000741878
0.000734428
0.000726843
0.000719177
0.000711496
0.000703873
0.000696397
0.000689163
0.00068228
0.000675863
0.00067003
0.000664904
0.0006606
0.000657222
0.000654846
0.000653512
0.000653198
0.000653907
0.000655572
0.00128996
0.00128881
0.00128869
0.00128965
0.00129154
0.00129433
0.00129796
0.00130234
0.00130739
0.00131301
0.0013191
0.00132555
0.00133228
0.0013392
0.00134623
0.00135328
0.00136031
0.00136726
0.00137408
0.00138073
0.00138719
0.00139342
0.00139941
0.00140516
0.00141064
0.00141585
0.0014208
0.00142549
0.00142992
0.0014341
0.00143804
0.00144173
0.00144521
0.00144847
0.00145152
0.00145439
0.00145707
0.00145957
0.00146192
0.00146412
0.00146617
0.00146809
0.00146989
0.00147157
0.00147315
0.00147463
0.00147601
0.0014773
0.00147852
0.00147966
0.00148073
0.00148174
0.00148268
0.00148357
0.00148441
0.0014852
0.00148594
0.00148664
0.0014873
0.00148792
0.00148851
0.00148906
0.00148959
0.00149008
0.00149055
0.00149099
0.00149141
0.0014918
0.00149217
0.00149253
0.00149286
0.00149317
0.00149347
0.00149375
0.00149401
0.00149426
0.0014945
0.00149472
0.00149492
0.00149512
0.0014953
0.00149547
0.00149563
0.00149577
0.00149591
0.00149603
0.00149615
0.00149625
0.00149634
0.00149643
0.0014965
0.00149657
0.00149663
0.00149667
0.00149671
0.00149674
0.00149676
0.00149678
0.00149678
0.00149677
0.00149676
0.00149674
0.00149671
0.00149667
0.00149662
0.00149656
0.0014965
0.00149642
0.00149634
0.00149624
0.00149614
0.00149602
0.0014959
0.00149577
0.00149562
0.00149547
0.0014953
0.00149512
0.00149493
0.00149473
0.00149451
0.00149428
0.00149404
0.00149378
0.00149351
0.00149322
0.00149292
0.00149259
0.00149225
0.00149189
0.00149151
0.00149111
0.00149069
0.00149024
0.00148977
0.00148927
0.00148875
0.00148819
0.0014876
0.00148698
0.00148632
0.00148562
0.00148489
0.00148411
0.00148328
0.0014824
0.00148147
0.00148048
0.00147942
0.00147831
0.00147711
0.00147585
0.0014745
0.00147306
0.00147153
0.00146989
0.00146814
0.00146628
0.00146429
0.00146216
0.00145989
0.00145746
0.00145487
0.00145209
0.00144913
0.00144597
0.0014426
0.00143901
0.00143518
0.0014311
0.00142677
0.00142217
0.00141729
0.00141214
0.0014067
0.00140097
0.00139495
0.00138865
0.00138208
0.00137526
0.0013682
0.00136092
0.00135347
0.00134589
0.00133823
0.00133054
0.0013229
0.00131539
0.00130809
0.0013011
0.00129452
0.00128847
0.00128304
0.00127835
0.00127449
0.00127155
0.00126959
0.00126865
0.00126887
0.00127033
0.00210039
0.00209986
0.00210045
0.00210217
0.00210481
0.0021083
0.00211255
0.00211747
0.00212298
0.00212898
0.00213538
0.0021421
0.00214904
0.00215614
0.00216331
0.00217049
0.00217763
0.00218467
0.00219157
0.0021983
0.00220483
0.00221113
0.00221719
0.002223
0.00222855
0.00223383
0.00223885
0.0022436
0.00224809
0.00225234
0.00225633
0.00226009
0.00226362
0.00226694
0.00227004
0.00227296
0.00227568
0.00227824
0.00228063
0.00228286
0.00228495
0.00228691
0.00228874
0.00229045
0.00229205
0.00229355
0.00229496
0.00229628
0.00229751
0.00229867
0.00229975
0.00230077
0.00230173
0.00230263
0.00230348
0.00230428
0.00230503
0.00230574
0.00230641
0.00230703
0.00230763
0.00230819
0.00230872
0.00230922
0.00230969
0.00231013
0.00231055
0.00231095
0.00231133
0.00231168
0.00231202
0.00231234
0.00231263
0.00231292
0.00231318
0.00231343
0.00231367
0.00231389
0.0023141
0.00231429
0.00231448
0.00231465
0.0023148
0.00231495
0.00231509
0.00231521
0.00231533
0.00231543
0.00231553
0.00231561
0.00231569
0.00231575
0.00231581
0.00231586
0.0023159
0.00231593
0.00231595
0.00231596
0.00231596
0.00231596
0.00231595
0.00231592
0.00231589
0.00231585
0.0023158
0.00231575
0.00231568
0.0023156
0.00231552
0.00231542
0.00231532
0.00231521
0.00231508
0.00231495
0.0023148
0.00231464
0.00231448
0.0023143
0.00231411
0.0023139
0.00231368
0.00231345
0.00231321
0.00231295
0.00231268
0.00231239
0.00231208
0.00231175
0.00231141
0.00231105
0.00231067
0.00231026
0.00230984
0.00230938
0.00230891
0.00230841
0.00230787
0.00230731
0.00230672
0.00230609
0.00230543
0.00230472
0.00230397
0.00230318
0.00230235
0.00230146
0.00230051
0.00229951
0.00229844
0.00229731
0.0022961
0.00229481
0.00229344
0.00229198
0.00229042
0.00228876
0.00228698
0.00228509
0.00228306
0.00228089
0.00227858
0.00227611
0.00227347
0.00227065
0.00226764
0.00226442
0.00226099
0.00225733
0.00225344
0.0022493
0.0022449
0.00224023
0.00223529
0.00223006
0.00222455
0.00221875
0.00221266
0.00220629
0.00219965
0.00219274
0.0021856
0.00217825
0.00217071
0.00216303
0.00215525
0.00214743
0.00213964
0.00213193
0.0021244
0.00211713
0.00211021
0.00210375
0.00209783
0.00209256
0.00208803
0.00208435
0.0020816
0.00207985
0.00207934
0.00208022
0.00309926
0.00309974
0.00310131
0.00310401
0.00310758
0.00311193
0.00311697
0.0031226
0.00312874
0.00313529
0.00314217
0.00314929
0.00315659
0.00316399
0.00317143
0.00317884
0.00318618
0.0031934
0.00320046
0.00320733
0.00321399
0.00322041
0.00322659
0.0032325
0.00323814
0.00324352
0.00324862
0.00325345
0.00325802
0.00326234
0.0032664
0.00327022
0.00327381
0.00327718
0.00328034
0.0032833
0.00328608
0.00328867
0.0032911
0.00329337
0.00329549
0.00329748
0.00329933
0.00330107
0.00330269
0.00330422
0.00330564
0.00330697
0.00330822
0.00330939
0.00331049
0.00331152
0.00331249
0.0033134
0.00331426
0.00331506
0.00331582
0.00331653
0.0033172
0.00331784
0.00331843
0.003319
0.00331953
0.00332003
0.00332051
0.00332096
0.00332138
0.00332178
0.00332216
0.00332251
0.00332285
0.00332317
0.00332347
0.00332375
0.00332402
0.00332427
0.00332451
0.00332473
0.00332494
0.00332514
0.00332532
0.00332549
0.00332565
0.0033258
0.00332593
0.00332606
0.00332617
0.00332628
0.00332637
0.00332646
0.00332653
0.0033266
0.00332666
0.00332671
0.00332674
0.00332678
0.0033268
0.00332681
0.00332681
0.00332681
0.00332679
0.00332677
0.00332674
0.0033267
0.00332665
0.00332659
0.00332653
0.00332645
0.00332637
0.00332627
0.00332617
0.00332605
0.00332593
0.00332579
0.00332565
0.00332549
0.00332532
0.00332514
0.00332495
0.00332474
0.00332453
0.00332429
0.00332405
0.00332379
0.00332351
0.00332322
0.00332291
0.00332259
0.00332224
0.00332188
0.00332149
0.00332109
0.00332066
0.00332021
0.00331973
0.00331922
0.00331869
0.00331812
0.00331752
0.00331689
0.00331622
0.00331551
0.00331476
0.00331396
0.00331312
0.00331222
0.00331127
0.00331025
0.00330918
0.00330803
0.00330681
0.00330551
0.00330412
0.00330264
0.00330106
0.00329937
0.00329757
0.00329565
0.00329359
0.0032914
0.00328905
0.00328654
0.00328385
0.00328099
0.00327792
0.00327466
0.00327117
0.00326745
0.00326349
0.00325928
0.00325481
0.00325006
0.00324503
0.00323972
0.00323411
0.00322821
0.00322202
0.00321553
0.00320877
0.00320174
0.00319445
0.00318694
0.00317923
0.00317136
0.00316336
0.00315529
0.00314721
0.00313917
0.00313126
0.00312355
0.00311612
0.00310906
0.00310247
0.00309644
0.00309106
0.00308645
0.0030827
0.00307992
0.00307838
0.00307827
0.00427826
0.00428011
0.00428294
0.00428684
0.00429154
0.00429694
0.00430294
0.00430944
0.00431635
0.00432359
0.00433109
0.00433876
0.00434653
0.00435435
0.00436216
0.0043699
0.00437753
0.004385
0.00439229
0.00439937
0.00440621
0.0044128
0.00441913
0.00442517
0.00443094
0.00443643
0.00444164
0.00444657
0.00445122
0.00445562
0.00445975
0.00446364
0.00446729
0.00447072
0.00447393
0.00447694
0.00447975
0.00448239
0.00448485
0.00448715
0.0044893
0.00449131
0.00449319
0.00449495
0.00449659
0.00449812
0.00449956
0.00450091
0.00450217
0.00450335
0.00450445
0.00450549
0.00450647
0.00450738
0.00450824
0.00450905
0.00450981
0.00451053
0.00451121
0.00451184
0.00451244
0.00451301
0.00451354
0.00451404
0.00451452
0.00451497
0.00451539
0.0045158
0.00451617
0.00451653
0.00451687
0.00451719
0.00451749
0.00451777
0.00451804
0.00451829
0.00451853
0.00451875
0.00451896
0.00451916
0.00451934
0.00451951
0.00451967
0.00451982
0.00451996
0.00452008
0.0045202
0.0045203
0.0045204
0.00452048
0.00452056
0.00452062
0.00452068
0.00452073
0.00452077
0.0045208
0.00452082
0.00452083
0.00452084
0.00452083
0.00452082
0.0045208
0.00452077
0.00452073
0.00452068
0.00452062
0.00452055
0.00452048
0.00452039
0.0045203
0.00452019
0.00452008
0.00451995
0.00451982
0.00451967
0.00451951
0.00451934
0.00451916
0.00451897
0.00451877
0.00451855
0.00451832
0.00451807
0.00451781
0.00451753
0.00451724
0.00451693
0.00451661
0.00451626
0.0045159
0.00451551
0.0045151
0.00451467
0.00451422
0.00451374
0.00451323
0.0045127
0.00451213
0.00451153
0.00451089
0.00451022
0.00450951
0.00450875
0.00450795
0.0045071
0.0045062
0.00450524
0.00450422
0.00450314
0.00450198
0.00450075
0.00449944
0.00449804
0.00449655
0.00449495
0.00449325
0.00449143
0.00448948
0.0044874
0.00448518
0.0044828
0.00448025
0.00447753
0.00447462
0.00447151
0.00446819
0.00446465
0.00446087
0.00445684
0.00445256
0.004448
0.00444316
0.00443804
0.00443262
0.0044269
0.00442088
0.00441455
0.00440792
0.00440099
0.00439378
0.00438629
0.00437856
0.0043706
0.00436244
0.00435413
0.00434571
0.00433722
0.00432873
0.0043203
0.004312
0.0043039
0.0042961
0.00428867
0.0042817
0.0042753
0.00426956
0.00426461
0.00426055
0.00425767
0.00425619
0.00562779
0.00563133
0.00563568
0.005641
0.00564701
0.00565363
0.00566074
0.00566825
0.00567608
0.00568414
0.00569238
0.0057007
0.00570907
0.00571741
0.00572568
0.00573383
0.00574182
0.00574962
0.0057572
0.00576454
0.00577161
0.00577841
0.00578491
0.00579113
0.00579704
0.00580266
0.00580799
0.00581303
0.00581778
0.00582226
0.00582648
0.00583043
0.00583415
0.00583763
0.00584089
0.00584394
0.0058468
0.00584947
0.00585196
0.00585429
0.00585646
0.00585849
0.00586039
0.00586216
0.00586381
0.00586536
0.00586681
0.00586816
0.00586943
0.00587062
0.00587173
0.00587277
0.00587375
0.00587466
0.00587553
0.00587634
0.0058771
0.00587782
0.00587849
0.00587913
0.00587973
0.0058803
0.00588083
0.00588133
0.00588181
0.00588226
0.00588268
0.00588308
0.00588346
0.00588382
0.00588416
0.00588447
0.00588478
0.00588506
0.00588533
0.00588558
0.00588581
0.00588604
0.00588625
0.00588644
0.00588662
0.00588679
0.00588695
0.0058871
0.00588724
0.00588736
0.00588748
0.00588758
0.00588768
0.00588776
0.00588784
0.00588791
0.00588796
0.00588801
0.00588805
0.00588808
0.0058881
0.00588812
0.00588812
0.00588811
0.0058881
0.00588808
0.00588805
0.00588801
0.00588796
0.0058879
0.00588783
0.00588776
0.00588767
0.00588758
0.00588747
0.00588736
0.00588723
0.0058871
0.00588695
0.00588679
0.00588663
0.00588645
0.00588625
0.00588605
0.00588583
0.0058856
0.00588535
0.00588509
0.00588482
0.00588453
0.00588422
0.00588389
0.00588355
0.00588318
0.0058828
0.00588239
0.00588196
0.00588151
0.00588103
0.00588052
0.00587998
0.00587942
0.00587882
0.00587818
0.00587751
0.0058768
0.00587604
0.00587524
0.00587439
0.00587348
0.00587252
0.0058715
0.00587041
0.00586925
0.00586802
0.0058667
0.00586529
0.00586379
0.00586218
0.00586047
0.00585863
0.00585667
0.00585457
0.00585232
0.00584991
0.00584734
0.00584458
0.00584163
0.00583848
0.00583511
0.00583151
0.00582767
0.00582357
0.00581921
0.00581457
0.00580964
0.00580441
0.00579887
0.00579302
0.00578685
0.00578035
0.00577354
0.00576641
0.00575897
0.00575124
0.00574322
0.00573494
0.00572643
0.00571772
0.00570885
0.00569986
0.0056908
0.00568174
0.00567272
0.00566383
0.00565513
0.00564671
0.00563865
0.00563105
0.00562401
0.00561765
0.00561207
0.00560757
0.00560436
0.007137
0.00714252
0.00714862
0.00715554
0.00716304
0.00717103
0.00717939
0.00718804
0.0071969
0.00720591
0.00721498
0.00722407
0.00723311
0.00724206
0.00725087
0.0072595
0.00726792
0.00727611
0.00728403
0.00729167
0.00729901
0.00730604
0.00731276
0.00731917
0.00732525
0.00733102
0.00733648
0.00734164
0.0073465
0.00735107
0.00735536
0.00735939
0.00736317
0.00736671
0.00737002
0.00737311
0.007376
0.0073787
0.00738122
0.00738357
0.00738576
0.00738781
0.00738972
0.0073915
0.00739316
0.00739472
0.00739617
0.00739753
0.0073988
0.00739998
0.0074011
0.00740214
0.00740312
0.00740403
0.00740489
0.0074057
0.00740646
0.00740718
0.00740785
0.00740849
0.00740909
0.00740965
0.00741018
0.00741069
0.00741116
0.00741161
0.00741203
0.00741243
0.00741281
0.00741316
0.0074135
0.00741382
0.00741412
0.0074144
0.00741466
0.00741492
0.00741515
0.00741537
0.00741558
0.00741578
0.00741596
0.00741613
0.00741629
0.00741643
0.00741657
0.0074167
0.00741681
0.00741691
0.00741701
0.00741709
0.00741717
0.00741724
0.00741729
0.00741734
0.00741738
0.00741741
0.00741743
0.00741744
0.00741745
0.00741744
0.00741743
0.00741741
0.00741738
0.00741734
0.00741729
0.00741723
0.00741716
0.00741709
0.007417
0.00741691
0.0074168
0.00741669
0.00741656
0.00741643
0.00741628
0.00741613
0.00741596
0.00741578
0.00741559
0.00741538
0.00741517
0.00741494
0.00741469
0.00741443
0.00741416
0.00741387
0.00741356
0.00741323
0.00741289
0.00741253
0.00741214
0.00741174
0.00741131
0.00741086
0.00741038
0.00740987
0.00740934
0.00740877
0.00740818
0.00740754
0.00740687
0.00740616
0.00740541
0.00740461
0.00740376
0.00740286
0.0074019
0.00740087
0.00739979
0.00739863
0.00739739
0.00739607
0.00739466
0.00739315
0.00739154
0.00738981
0.00738797
0.00738599
0.00738388
0.00738161
0.00737918
0.00737658
0.0073738
0.00737081
0.00736762
0.00736421
0.00736055
0.00735665
0.00735248
0.00734804
0.00734331
0.00733827
0.00733293
0.00732726
0.00732126
0.00731493
0.00730825
0.00730123
0.00729386
0.00728616
0.00727813
0.00726978
0.00726113
0.0072522
0.00724302
0.00723362
0.00722404
0.00721432
0.00720452
0.00719468
0.00718487
0.00717516
0.00716562
0.00715633
0.00714738
0.00713887
0.0071309
0.00712359
0.00711722
0.00711198
0.00879399
0.00880171
0.00880975
0.00881845
0.00882758
0.00883706
0.00884679
0.00885669
0.00886669
0.00887672
0.00888673
0.00889665
0.00890645
0.00891607
0.00892549
0.00893466
0.00894356
0.00895218
0.00896048
0.00896846
0.0089761
0.0089834
0.00899036
0.00899697
0.00900324
0.00900918
0.00901478
0.00902006
0.00902503
0.00902969
0.00903407
0.00903817
0.00904201
0.0090456
0.00904896
0.00905209
0.00905501
0.00905774
0.00906028
0.00906264
0.00906485
0.00906691
0.00906883
0.00907061
0.00907228
0.00907384
0.00907529
0.00907665
0.00907792
0.0090791
0.00908021
0.00908125
0.00908223
0.00908314
0.009084
0.0090848
0.00908556
0.00908627
0.00908694
0.00908757
0.00908817
0.00908873
0.00908926
0.00908976
0.00909023
0.00909067
0.00909109
0.00909149
0.00909186
0.00909222
0.00909255
0.00909286
0.00909316
0.00909344
0.00909371
0.00909396
0.00909419
0.00909441
0.00909462
0.00909481
0.00909499
0.00909516
0.00909532
0.00909547
0.0090956
0.00909573
0.00909584
0.00909594
0.00909604
0.00909612
0.0090962
0.00909626
0.00909632
0.00909637
0.00909641
0.00909644
0.00909646
0.00909647
0.00909647
0.00909647
0.00909646
0.00909643
0.0090964
0.00909636
0.00909631
0.00909626
0.00909619
0.00909612
0.00909603
0.00909594
0.00909583
0.00909572
0.00909559
0.00909546
0.00909532
0.00909516
0.00909499
0.00909481
0.00909462
0.00909442
0.0090942
0.00909398
0.00909373
0.00909347
0.0090932
0.00909291
0.00909261
0.00909228
0.00909194
0.00909158
0.0090912
0.0090908
0.00909037
0.00908992
0.00908945
0.00908895
0.00908841
0.00908785
0.00908726
0.00908663
0.00908596
0.00908526
0.00908451
0.00908371
0.00908287
0.00908197
0.00908101
0.00907999
0.00907891
0.00907775
0.00907652
0.0090752
0.00907379
0.00907228
0.00907067
0.00906894
0.00906709
0.00906511
0.00906298
0.0090607
0.00905826
0.00905564
0.00905283
0.00904982
0.00904659
0.00904313
0.00903942
0.00903546
0.00903123
0.0090267
0.00902188
0.00901674
0.00901127
0.00900546
0.00899931
0.00899279
0.00898591
0.00897866
0.00897103
0.00896303
0.00895467
0.00894595
0.00893688
0.00892748
0.00891778
0.00890779
0.00889755
0.00888709
0.00887646
0.00886572
0.0088549
0.00884407
0.00883329
0.00882265
0.00881222
0.00880209
0.00879237
0.00878314
0.00877468
0.00876717
0.0105859
0.010596
0.0106061
0.0106167
0.0106276
0.0106387
0.0106499
0.0106611
0.0106723
0.0106835
0.0106945
0.0107053
0.0107159
0.0107263
0.0107363
0.0107461
0.0107555
0.0107646
0.0107733
0.0107816
0.0107896
0.0107972
0.0108044
0.0108113
0.0108177
0.0108238
0.0108296
0.010835
0.0108401
0.0108448
0.0108493
0.0108535
0.0108574
0.010861
0.0108644
0.0108676
0.0108705
0.0108733
0.0108758
0.0108782
0.0108804
0.0108825
0.0108844
0.0108862
0.0108879
0.0108894
0.0108909
0.0108922
0.0108935
0.0108947
0.0108958
0.0108968
0.0108978
0.0108987
0.0108995
0.0109003
0.0109011
0.0109018
0.0109024
0.0109031
0.0109036
0.0109042
0.0109047
0.0109052
0.0109057
0.0109061
0.0109065
0.0109069
0.0109073
0.0109077
0.010908
0.0109083
0.0109086
0.0109089
0.0109091
0.0109094
0.0109096
0.0109098
0.01091
0.0109102
0.0109104
0.0109106
0.0109107
0.0109109
0.010911
0.0109111
0.0109112
0.0109114
0.0109114
0.0109115
0.0109116
0.0109117
0.0109117
0.0109118
0.0109118
0.0109118
0.0109119
0.0109119
0.0109119
0.0109119
0.0109119
0.0109118
0.0109118
0.0109118
0.0109117
0.0109117
0.0109116
0.0109115
0.0109114
0.0109113
0.0109112
0.0109111
0.010911
0.0109109
0.0109107
0.0109106
0.0109104
0.0109102
0.01091
0.0109098
0.0109096
0.0109094
0.0109092
0.0109089
0.0109086
0.0109083
0.010908
0.0109077
0.0109074
0.010907
0.0109066
0.0109062
0.0109058
0.0109054
0.0109049
0.0109044
0.0109039
0.0109033
0.0109027
0.0109021
0.0109015
0.0109008
0.0109
0.0108992
0.0108984
0.0108975
0.0108965
0.0108955
0.0108945
0.0108933
0.0108921
0.0108908
0.0108894
0.0108879
0.0108862
0.0108845
0.0108827
0.0108807
0.0108786
0.0108763
0.0108738
0.0108712
0.0108684
0.0108653
0.0108621
0.0108586
0.0108548
0.0108508
0.0108465
0.0108419
0.010837
0.0108317
0.0108261
0.0108202
0.0108139
0.0108071
0.0108
0.0107925
0.0107846
0.0107763
0.0107676
0.0107585
0.010749
0.0107391
0.0107288
0.0107181
0.0107072
0.0106959
0.0106844
0.0106727
0.0106608
0.0106488
0.0106367
0.0106246
0.0106126
0.0106007
0.0105891
0.0105778
0.0105671
0.0105571
0.0124991
0.0125117
0.012524
0.0125366
0.0125493
0.0125621
0.0125748
0.0125874
0.0125999
0.0126122
0.0126243
0.012636
0.0126475
0.0126586
0.0126694
0.0126797
0.0126897
0.0126993
0.0127084
0.0127172
0.0127255
0.0127334
0.0127408
0.0127479
0.0127546
0.0127609
0.0127668
0.0127723
0.0127775
0.0127824
0.0127869
0.0127911
0.0127951
0.0127988
0.0128022
0.0128054
0.0128084
0.0128111
0.0128137
0.0128161
0.0128183
0.0128204
0.0128223
0.0128241
0.0128257
0.0128273
0.0128287
0.0128301
0.0128313
0.0128325
0.0128336
0.0128346
0.0128356
0.0128365
0.0128373
0.0128381
0.0128389
0.0128395
0.0128402
0.0128408
0.0128414
0.0128419
0.0128425
0.012843
0.0128434
0.0128438
0.0128443
0.0128446
0.012845
0.0128454
0.0128457
0.012846
0.0128463
0.0128466
0.0128468
0.0128471
0.0128473
0.0128475
0.0128477
0.0128479
0.0128481
0.0128482
0.0128484
0.0128485
0.0128487
0.0128488
0.0128489
0.012849
0.0128491
0.0128492
0.0128493
0.0128493
0.0128494
0.0128494
0.0128495
0.0128495
0.0128495
0.0128495
0.0128495
0.0128495
0.0128495
0.0128495
0.0128495
0.0128494
0.0128494
0.0128493
0.0128493
0.0128492
0.0128491
0.012849
0.0128489
0.0128488
0.0128487
0.0128485
0.0128484
0.0128482
0.0128481
0.0128479
0.0128477
0.0128475
0.0128473
0.0128471
0.0128468
0.0128466
0.0128463
0.012846
0.0128457
0.0128454
0.0128451
0.0128447
0.0128444
0.012844
0.0128435
0.0128431
0.0128426
0.0128422
0.0128416
0.0128411
0.0128405
0.0128399
0.0128392
0.0128385
0.0128378
0.012837
0.0128362
0.0128353
0.0128344
0.0128334
0.0128323
0.0128312
0.01283
0.0128287
0.0128273
0.0128258
0.0128242
0.0128224
0.0128206
0.0128186
0.0128165
0.0128142
0.0128117
0.0128091
0.0128063
0.0128032
0.0127999
0.0127964
0.0127926
0.0127885
0.0127841
0.0127795
0.0127745
0.0127691
0.0127634
0.0127573
0.0127508
0.0127439
0.0127366
0.0127288
0.0127206
0.012712
0.0127029
0.0126933
0.0126833
0.0126729
0.012662
0.0126507
0.012639
0.0126269
0.0126145
0.0126017
0.0125886
0.0125754
0.0125619
0.0125483
0.0125346
0.0125209
0.0125073
0.0124939
0.0124808
0.0124682
0.0145194
0.0145346
0.0145491
0.0145638
0.0145784
0.0145928
0.0146071
0.0146212
0.014635
0.0146485
0.0146616
0.0146743
0.0146867
0.0146986
0.01471
0.014721
0.0147316
0.0147416
0.0147512
0.0147604
0.014769
0.0147772
0.014785
0.0147923
0.0147991
0.0148056
0.0148116
0.0148173
0.0148226
0.0148276
0.0148322
0.0148365
0.0148405
0.0148442
0.0148477
0.0148509
0.0148539
0.0148567
0.0148592
0.0148616
0.0148638
0.0148659
0.0148678
0.0148696
0.0148712
0.0148728
0.0148742
0.0148755
0.0148768
0.0148779
0.014879
0.01488
0.014881
0.0148819
0.0148827
0.0148835
0.0148842
0.0148849
0.0148855
0.0148861
0.0148867
0.0148872
0.0148877
0.0148882
0.0148887
0.0148891
0.0148895
0.0148899
0.0148903
0.0148906
0.0148909
0.0148912
0.0148915
0.0148918
0.014892
0.0148923
0.0148925
0.0148927
0.0148929
0.0148931
0.0148933
0.0148934
0.0148936
0.0148937
0.0148939
0.014894
0.0148941
0.0148942
0.0148943
0.0148944
0.0148944
0.0148945
0.0148946
0.0148946
0.0148947
0.0148947
0.0148947
0.0148947
0.0148947
0.0148947
0.0148947
0.0148947
0.0148946
0.0148946
0.0148946
0.0148945
0.0148944
0.0148944
0.0148943
0.0148942
0.0148941
0.014894
0.0148939
0.0148937
0.0148936
0.0148934
0.0148933
0.0148931
0.0148929
0.0148927
0.0148925
0.0148923
0.0148921
0.0148918
0.0148915
0.0148913
0.014891
0.0148906
0.0148903
0.01489
0.0148896
0.0148892
0.0148888
0.0148884
0.0148879
0.0148874
0.0148869
0.0148864
0.0148858
0.0148852
0.0148846
0.0148839
0.0148832
0.0148824
0.0148816
0.0148807
0.0148798
0.0148788
0.0148777
0.0148766
0.0148754
0.0148741
0.0148727
0.0148713
0.0148697
0.014868
0.0148661
0.0148642
0.014862
0.0148598
0.0148573
0.0148546
0.0148518
0.0148487
0.0148454
0.0148419
0.014838
0.0148339
0.0148295
0.0148247
0.0148196
0.0148142
0.0148083
0.0148021
0.0147954
0.0147884
0.0147808
0.0147728
0.0147643
0.0147553
0.0147458
0.0147359
0.0147254
0.0147144
0.0147029
0.0146909
0.0146784
0.0146654
0.014652
0.0146382
0.014624
0.0146094
0.0145945
0.0145793
0.0145639
0.0145484
0.0145327
0.0145171
0.0145015
0.0144862
0.0166321
0.0166498
0.0166667
0.0166834
0.0166999
0.0167161
0.0167319
0.0167475
0.0167626
0.0167772
0.0167914
0.0168051
0.0168184
0.0168311
0.0168432
0.0168549
0.016866
0.0168766
0.0168866
0.0168961
0.0169051
0.0169136
0.0169216
0.0169291
0.0169362
0.0169428
0.016949
0.0169548
0.0169602
0.0169653
0.01697
0.0169743
0.0169784
0.0169821
0.0169856
0.0169888
0.0169918
0.0169946
0.0169972
0.0169996
0.0170018
0.0170038
0.0170057
0.0170075
0.0170092
0.0170107
0.0170121
0.0170134
0.0170146
0.0170158
0.0170168
0.0170178
0.0170188
0.0170196
0.0170204
0.0170212
0.0170219
0.0170226
0.0170232
0.0170238
0.0170244
0.0170249
0.0170254
0.0170259
0.0170263
0.0170267
0.0170271
0.0170275
0.0170279
0.0170282
0.0170285
0.0170288
0.0170291
0.0170294
0.0170296
0.0170299
0.0170301