/*--------------------------------*- C++ -*----------------------------------*\
| =========                 |                                                 |
| \\      /  F ield         | OpenFOAM: The Open Source CFD Toolbox           |
|  \\    /   O peration     | Version:  2412                                  |
|   \\  /    A nd           | Website:  www.openfoam.com                      |
|    \\/     M anipulation  |                                                 |
\*---------------------------------------------------------------------------*/
FoamFile
{
    version     2.0;
    format      ascii;
    arch        "LSB;label=32;scalar=64";
    class       surfaceScalarField;
    location    "700";
    object      phi;
}
// * * * * * * * * * * * * * * * * * * * * * * * * * * * * * * * * * * * * * //

dimensions      [0 3 -1 0 0 0 0];

oriented        oriented;

internalField   nonuniform List<scalar> 
79600
(
-2.02117e-13
1.98414e-13
-2.17087e-12
1.96832e-12
-5.74365e-12
3.57287e-12
-1.03991e-11
4.656e-12
-1.56363e-11
5.2367e-12
-2.10463e-11
5.41018e-12
-2.63257e-11
5.27965e-12
-3.12605e-11
4.93456e-12
-3.57069e-11
4.44725e-12
-3.95798e-11
3.87268e-12
-4.28342e-11
3.25472e-12
-4.54591e-11
2.62474e-12
-4.74662e-11
2.00713e-12
-4.88845e-11
1.41875e-12
-4.97559e-11
8.71486e-13
-5.01283e-11
3.72976e-13
-5.00559e-11
-7.23516e-14
-4.95931e-11
-4.62342e-13
-4.87953e-11
-7.9754e-13
-4.77153e-11
-1.07955e-12
-4.64039e-11
-1.31119e-12
-4.49078e-11
-1.49609e-12
-4.32696e-11
-1.63812e-12
-4.15284e-11
-1.74149e-12
-3.97173e-11
-1.81073e-12
-3.78672e-11
-1.85044e-12
-3.60026e-11
-1.8643e-12
-3.41457e-11
-1.85687e-12
-3.23144e-11
-1.83138e-12
-3.05233e-11
-1.79123e-12
-2.87837e-11
-1.73953e-12
-2.71045e-11
-1.67905e-12
-2.54923e-11
-1.61212e-12
-2.3952e-11
-1.54083e-12
-2.2486e-11
-1.46641e-12
-2.10956e-11
-1.39042e-12
-1.97813e-11
-1.31458e-12
-1.85417e-11
-1.23922e-12
-1.73762e-11
-1.16594e-12
-1.62815e-11
-1.09417e-12
-1.52563e-11
-1.0258e-12
-1.4296e-11
-9.59469e-13
-1.3399e-11
-8.97085e-13
-1.25613e-11
-8.3786e-13
-1.17793e-11
-7.81608e-13
-1.10504e-11
-7.29046e-13
-1.03708e-11
-6.79639e-13
-9.73694e-12
-6.33356e-13
-9.14657e-12
-5.90446e-13
-8.59647e-12
-5.50462e-13
-8.08336e-12
-5.13053e-13
-7.60472e-12
-4.78389e-13
-7.15832e-12
-4.46432e-13
-6.74167e-12
-4.16756e-13
-6.35237e-12
-3.89135e-13
-5.98845e-12
-3.6368e-13
-5.64803e-12
-3.40291e-13
-5.32933e-12
-3.1869e-13
-5.03065e-12
-2.98685e-13
-4.75044e-12
-2.80212e-13
-4.48731e-12
-2.63154e-13
-4.23994e-12
-2.47368e-13
-4.00712e-12
-2.3276e-13
-3.78774e-12
-2.19303e-13
-3.58077e-12
-2.06904e-13
-3.38527e-12
-1.95476e-13
-3.20039e-12
-1.84901e-13
-3.02533e-12
-1.75113e-13
-2.85933e-12
-1.66043e-13
-2.70173e-12
-1.57611e-13
-2.55187e-12
-1.49772e-13
-2.40916e-12
-1.4257e-13
-2.27306e-12
-1.35986e-13
-2.14313e-12
-1.29944e-13
-2.01895e-12
-1.24325e-13
-1.90006e-12
-1.19025e-13
-1.78603e-12
-1.14085e-13
-1.67643e-12
-1.09522e-13
-1.57098e-12
-1.05393e-13
-1.46934e-12
-1.01582e-13
-1.37132e-12
-9.809e-14
-1.27656e-12
-9.48339e-14
-1.18482e-12
-9.18152e-14
-1.0958e-12
-8.90132e-14
-1.00931e-12
-8.64194e-14
-9.25158e-13
-8.40582e-14
-8.43039e-13
-8.19581e-14
-7.62771e-13
-8.01569e-14
-6.84263e-13
-7.85874e-14
-6.07366e-13
-7.71013e-14
-5.31868e-13
-7.56423e-14
-4.57502e-13
-7.43067e-14
-3.84054e-13
-7.32214e-14
-3.11479e-13
-7.24e-14
-2.3971e-13
-7.17382e-14
-1.68514e-13
-7.1172e-14
-9.76747e-14
-7.07598e-14
-2.71371e-14
-7.05488e-14
4.31626e-14
-7.04489e-14
1.13436e-13
-7.03634e-14
1.83944e-13
-7.03612e-14
2.54844e-13
-7.0598e-14
3.26172e-13
-7.11074e-14
3.97973e-13
-7.17698e-14
4.70427e-13
-7.24795e-14
5.43794e-13
-7.32842e-14
6.18263e-13
-7.43086e-14
6.93917e-13
-7.55949e-14
7.70855e-13
-7.70599e-14
8.49279e-13
-7.85984e-14
9.29444e-13
-8.02019e-14
1.01155e-12
-8.19639e-14
1.09574e-12
-8.39723e-14
1.18216e-12
-8.6242e-14
1.27103e-12
-8.8751e-14
1.36263e-12
-9.1493e-14
1.45718e-12
-9.44747e-14
1.55493e-12
-9.76971e-14
1.65615e-12
-1.01195e-13
1.76113e-12
-1.04999e-13
1.87012e-12
-1.09085e-13
1.98349e-12
-1.13424e-13
2.10161e-12
-1.1809e-13
2.22485e-12
-1.23196e-13
2.35357e-12
-1.28766e-13
2.48819e-12
-1.34736e-13
2.62923e-12
-1.41105e-13
2.77724e-12
-1.47962e-13
2.93272e-12
-1.55394e-13
3.09621e-12
-1.63418e-13
3.26836e-12
-1.7205e-13
3.44992e-12
-1.81408e-13
3.64164e-12
-1.91633e-13
3.84425e-12
-2.02732e-13
4.05865e-12
-2.14625e-13
4.28586e-12
-2.27315e-13
4.52702e-12
-2.40973e-13
4.78322e-12
-2.55846e-13
5.05556e-12
-2.72087e-13
5.34534e-12
-2.89735e-13
5.65408e-12
-3.08838e-13
5.98339e-12
-3.29498e-13
6.33494e-12
-3.51804e-13
6.71053e-12
-3.75806e-13
7.1122e-12
-4.0161e-13
7.54215e-12
-4.29491e-13
8.00263e-12
-4.59811e-13
8.49597e-12
-4.92824e-13
9.02476e-12
-5.2862e-13
9.59177e-12
-5.67224e-13
1.02e-11
-6.08696e-13
1.08525e-11
-6.53122e-13
1.15527e-11
-7.00595e-13
1.23039e-11
-7.51314e-13
1.31097e-11
-8.05566e-13
1.39737e-11
-8.63538e-13
1.48994e-11
-9.25259e-13
1.58904e-11
-9.90667e-13
1.69504e-11
-1.05964e-12
1.80828e-11
-1.13202e-12
1.92906e-11
-1.20762e-12
2.05768e-11
-1.28615e-12
2.19433e-11
-1.36691e-12
2.33919e-11
-1.44907e-12
2.49234e-11
-1.53181e-12
2.65374e-11
-1.61417e-12
2.82321e-11
-1.6949e-12
3.00043e-11
-1.77236e-12
3.18486e-11
-1.84452e-12
3.37577e-11
-1.90914e-12
3.57216e-11
-1.9637e-12
3.77271e-11
-2.0053e-12
3.97581e-11
-2.03062e-12
4.17944e-11
-2.03599e-12
4.38121e-11
-2.01735e-12
4.57829e-11
-1.97038e-12
4.76738e-11
-1.89052e-12
4.94472e-11
-1.77307e-12
5.10608e-11
-1.61332e-12
5.24676e-11
-1.40661e-12
5.36162e-11
-1.14855e-12
5.44517e-11
-8.35365e-13
5.49161e-11
-4.64272e-13
5.49499e-11
-3.37034e-14
5.44936e-11
4.56443e-13
5.34898e-11
1.00386e-12
5.18864e-11
1.60347e-12
4.96402e-11
2.24647e-12
4.67208e-11
2.91944e-12
4.31173e-11
3.60344e-12
3.88449e-11
4.27222e-12
3.39542e-11
4.89051e-12
2.85428e-11
5.41149e-12
2.27688e-11
5.77421e-12
1.68684e-11
5.90071e-12
1.11745e-11
5.69432e-12
6.1311e-12
5.04392e-12
2.28147e-12
3.85001e-12
1.83631e-13
2.09798e-12
1.83464e-13
-2.08983e-12
2.28777e-12
-8.20991e-12
8.08949e-12
-1.76753e-11
1.30371e-11
-2.94692e-11
1.64499e-11
-4.2588e-11
1.83552e-11
-5.61626e-11
1.89847e-11
-6.95006e-11
1.86176e-11
-8.20815e-11
1.7515e-11
-9.35358e-11
1.59015e-11
-1.03622e-10
1.39594e-11
-1.12203e-10
1.1835e-11
-1.19221e-10
9.64262e-12
-1.24684e-10
7.46903e-12
-1.28645e-10
5.37943e-12
-1.31194e-10
3.41973e-12
-1.32442e-10
1.62127e-12
-1.32518e-10
2.92938e-15
-1.31555e-10
-1.42529e-12
-1.29692e-10
-2.66152e-12
-1.27063e-10
-3.70944e-12
-1.23797e-10
-4.57755e-12
-1.20016e-10
-5.27701e-12
-1.15833e-10
-5.82126e-12
-1.1135e-10
-6.22553e-12
-1.06656e-10
-6.50382e-12
-1.01834e-10
-6.67264e-12
-9.69521e-11
-6.74632e-12
-9.20694e-11
-6.73925e-12
-8.7236e-11
-6.66457e-12
-8.24929e-11
-6.53463e-12
-7.78727e-11
-6.35996e-12
-7.3401e-11
-6.15061e-12
-6.90972e-11
-5.9156e-12
-6.49751e-11
-5.66229e-12
-6.10439e-11
-5.39715e-12
-5.73091e-11
-5.12542e-12
-5.37719e-11
-4.85184e-12
-5.04314e-11
-4.57952e-12
-4.72846e-11
-4.31265e-12
-4.43266e-11
-4.0524e-12
-4.15512e-11
-3.80146e-12
-3.89507e-11
-3.55998e-12
-3.65179e-11
-3.3303e-12
-3.42436e-11
-3.11194e-12
-3.21195e-11
-2.90528e-12
-3.01376e-11
-2.71121e-12
-2.82887e-11
-2.52874e-12
-2.65639e-11
-2.35767e-12
-2.49558e-11
-2.19833e-12
-2.34562e-11
-2.04984e-12
-2.20576e-11
-1.91145e-12
-2.07527e-11
-1.783e-12
-1.95349e-11
-1.66401e-12
-1.83978e-11
-1.55368e-12
-1.73355e-11
-1.45145e-12
-1.63423e-11
-1.35691e-12
-1.5413e-11
-1.26952e-12
-1.45427e-11
-1.18875e-12
-1.3727e-11
-1.11416e-12
-1.29618e-11
-1.04527e-12
-1.22431e-11
-9.81638e-13
-1.15675e-11
-9.22871e-13
-1.09317e-11
-8.68579e-13
-1.03326e-11
-8.18407e-13
-9.7674e-12
-7.72032e-13
-9.23354e-12
-7.29197e-13
-8.72866e-12
-6.89618e-13
-8.2506e-12
-6.53051e-13
-7.79731e-12
-6.1925e-13
-7.36698e-12
-5.8799e-13
-6.95793e-12
-5.59024e-13
-6.56849e-12
-5.32153e-13
-6.19715e-12
-5.07263e-13
-5.84257e-12
-4.84285e-13
-5.50357e-12
-4.63115e-13
-5.17906e-12
-4.43542e-13
-4.8679e-12
-4.25392e-13
-4.56901e-12
-4.08521e-13
-4.2814e-12
-3.92904e-13
-4.00425e-12
-3.78481e-13
-3.73684e-12
-3.6528e-13
-3.47842e-12
-3.53149e-13
-3.22827e-12
-3.42004e-13
-2.9856e-12
-3.31741e-13
-2.7498e-12
-3.22313e-13
-2.52034e-12
-3.13669e-13
-2.29659e-12
-3.05703e-13
-2.07796e-12
-2.9849e-13
-1.86397e-12
-2.92125e-13
-1.65421e-12
-2.86548e-13
-1.4483e-12
-2.81623e-13
-1.24571e-12
-2.7719e-13
-1.04579e-12
-2.73221e-13
-8.48132e-13
-2.69864e-13
-6.52479e-13
-2.67158e-13
-4.58449e-13
-2.64982e-13
-2.65542e-13
-2.63323e-13
-7.336e-14
-2.62311e-13
1.18383e-13
-2.61954e-13
3.10012e-13
-2.6209e-13
5.01991e-13
-2.62593e-13
6.94871e-13
-2.63511e-13
8.89092e-13
-2.65018e-13
1.08489e-12
-2.67218e-13
1.28251e-12
-2.70019e-13
1.48241e-12
-2.73284e-13
1.68515e-12
-2.77024e-13
1.89125e-12
-2.8138e-13
2.10109e-12
-2.8645e-13
2.31507e-12
-2.92209e-13
2.53365e-12
-2.98593e-13
2.75735e-12
-3.05614e-13
2.98671e-12
-3.13342e-13
3.22229e-12
-3.21843e-13
3.46463e-12
-3.31146e-13
3.7144e-12
-3.41267e-13
3.97226e-12
-3.52252e-13
4.23885e-12
-3.64159e-13
4.51494e-12
-3.77068e-13
4.80134e-12
-3.91091e-13
5.09885e-12
-4.06307e-13
5.40826e-12
-4.2273e-13
5.73051e-12
-4.40402e-13
6.06673e-12
-4.59454e-13
6.41806e-12
-4.80043e-13
6.78566e-12
-5.02267e-13
7.17078e-12
-5.26205e-13
7.57484e-12
-5.51995e-13
7.99934e-12
-5.79844e-13
8.44581e-12
-6.09936e-13
8.91592e-12
-6.42379e-13
9.41165e-12
-6.77314e-13
9.93524e-12
-7.1504e-13
1.04889e-11
-7.5592e-13
1.10749e-11
-8.00224e-13
1.16958e-11
-8.481e-13
1.23544e-11
-8.99717e-13
1.3054e-11
-9.55457e-13
1.37978e-11
-1.01582e-12
1.45895e-11
-1.08122e-12
1.54331e-11
-1.15199e-12
1.63329e-11
-1.22861e-12
1.72933e-11
-1.31165e-12
1.83193e-11
-1.40161e-12
1.9416e-11
-1.4988e-12
2.05894e-11
-1.60362e-12
2.18457e-11
-1.71672e-12
2.31916e-11
-1.83883e-12
2.46339e-11
-1.97062e-12
2.61803e-11
-2.11275e-12
2.78385e-11
-2.26585e-12
2.96166e-11
-2.43048e-12
3.15233e-11
-2.60703e-12
3.35676e-11
-2.79585e-12
3.57587e-11
-2.99729e-12
3.81061e-11
-3.21165e-12
4.06194e-11
-3.43906e-12
4.33076e-11
-3.67945e-12
4.61799e-11
-3.9324e-12
4.92448e-11
-4.19716e-12
5.25102e-11
-4.47274e-12
5.59827e-11
-4.75783e-12
5.96672e-11
-5.05045e-12
6.35667e-11
-5.34782e-12
6.7682e-11
-5.64651e-12
7.20105e-11
-5.9423e-12
7.65463e-11
-6.23019e-12
8.12788e-11
-6.50428e-12
8.61917e-11
-6.75729e-12
9.12634e-11
-6.98078e-12
9.64648e-11
-7.16525e-12
1.01759e-10
-7.29982e-12
1.07101e-10
-7.37236e-12
1.12434e-10
-7.36962e-12
1.17693e-10
-7.27703e-12
1.22802e-10
-7.0791e-12
1.27671e-10
-6.75973e-12
1.32199e-10
-6.30226e-12
1.36276e-10
-5.69033e-12
1.39778e-10
-4.90827e-12
1.42571e-10
-3.94177e-12
1.44514e-10
-2.77888e-12
1.45461e-10
-1.41123e-12
1.45263e-10
1.64492e-13
1.43774e-10
1.94531e-12
1.40858e-10
3.91986e-12
1.36395e-10
6.06616e-12
1.30292e-10
8.349e-12
1.22495e-10
1.07166e-11
1.13002e-10
1.30973e-11
1.01879e-10
1.53951e-11
8.92841e-11
1.74853e-11
7.54873e-11
1.92083e-11
6.08967e-11
2.03646e-11
4.60849e-11
2.07122e-11
3.18094e-11
1.99694e-11
1.90149e-11
1.78381e-11
8.78756e-12
1.40773e-11
2.21306e-12
8.67278e-12
2.39663e-12
-3.90044e-12
6.18856e-12
-1.37632e-11
1.7951e-11
-2.80967e-11
2.73707e-11
-4.54913e-11
3.38447e-11
-6.46438e-11
3.75078e-11
-8.44222e-11
3.87634e-11
-1.03899e-10
3.80945e-11
-1.22352e-10
3.59687e-11
-1.39253e-10
3.28018e-11
-1.54238e-10
2.89445e-11
-1.67088e-10
2.46854e-11
-1.77699e-10
2.02536e-11
-1.86059e-10
1.58292e-11
-1.92228e-10
1.15483e-11
-1.96319e-10
7.51024e-12
-1.98483e-10
3.78508e-12
-1.98895e-10
4.16022e-13
-1.97748e-10
-2.5726e-12
-1.95235e-10
-5.17303e-12
-1.91554e-10
-7.38994e-12
-1.86894e-10
-9.23764e-12
-1.81434e-10
-1.07372e-11
-1.7534e-10
-1.19145e-11
-1.68767e-10
-1.27993e-11
-1.61849e-10
-1.34212e-11
-1.54711e-10
-1.38119e-11
-1.47456e-10
-1.40011e-11
-1.40177e-10
-1.40184e-11
-1.3295e-10
-1.38915e-11
-1.25839e-10
-1.36453e-11
-1.18897e-10
-1.3303e-11
-1.12163e-10
-1.28852e-11
-1.05669e-10
-1.241e-11
-9.94377e-11
-1.18935e-11
-9.34851e-11
-1.13494e-11
-8.78211e-11
-1.07901e-11
-8.24487e-11
-1.02237e-11
-7.73693e-11
-9.65979e-12
-7.25778e-11
-9.10383e-12
-6.8069e-11
-8.56143e-12
-6.38334e-11
-8.03648e-12
-5.98618e-11
-7.53205e-12
-5.61422e-11
-7.04977e-12
-5.26623e-11
-6.59137e-12
-4.94105e-11
-6.15769e-12
-4.63734e-11
-5.74847e-12
-4.3538e-11
-5.36383e-12
-4.08923e-11
-5.00363e-12
-3.84239e-11
-4.66705e-12
-3.61207e-11
-4.35292e-12
-3.39718e-11
-4.06048e-12
-3.19662e-11
-3.78874e-12
-3.00936e-11
-3.53649e-12
-2.83444e-11
-3.30262e-12
-2.67097e-11
-3.0861e-12
-2.51811e-11
-2.88572e-12
-2.37505e-11
-2.70031e-12
-2.24105e-11
-2.52888e-12
-2.11543e-11
-2.37047e-12
-1.99756e-11
-2.22407e-12
-1.88684e-11
-2.0888e-12
-1.78274e-11
-1.96385e-12
-1.68476e-11
-1.84847e-12
-1.59244e-11
-1.74186e-12
-1.50533e-11
-1.64331e-12
-1.42305e-11
-1.55219e-12
-1.34523e-11
-1.46795e-12
-1.27154e-11
-1.39003e-12
-1.20167e-11
-1.31797e-12
-1.13533e-11
-1.25136e-12
-1.07226e-11
-1.18978e-12
-1.01223e-11
-1.13279e-12
-9.54989e-12
-1.07996e-12
-9.00343e-12
-1.03103e-12
-8.48089e-12
-9.85736e-13
-7.98058e-12
-9.43916e-13
-7.50082e-12
-9.05239e-13
-7.04007e-12
-8.69465e-13
-6.59682e-12
-8.36347e-13
-6.16977e-12
-8.05743e-13
-5.75765e-12
-7.77542e-13
-5.35931e-12
-7.51574e-13
-4.97367e-12
-7.27678e-13
-4.59964e-12
-7.05742e-13
-4.23622e-12
-6.85682e-13
-3.88251e-12
-6.67418e-13
-3.53772e-12
-6.50783e-13
-3.20098e-12
-6.3561e-13
-2.87136e-12
-6.2189e-13
-2.54813e-12
-6.09687e-13
-2.23064e-12
-5.98964e-13
-1.91825e-12
-5.89566e-13
-1.61023e-12
-5.81374e-13
-1.30581e-12
-5.74395e-13
-1.00434e-12
-5.68667e-13
-7.05342e-13
-5.64133e-13
-4.08228e-13
-5.60707e-13
-1.12274e-13
-5.58394e-13
1.83197e-13
-5.57277e-13
4.78702e-13
-5.57387e-13
7.74728e-13
-5.58632e-13
1.0719e-12
-5.60897e-13
1.37096e-12
-5.64218e-13
1.67254e-12
-5.68757e-13
1.97717e-12
-5.746e-13
2.28536e-12
-5.81669e-13
2.59779e-12
-5.89879e-13
2.91526e-12
-5.99248e-13
3.23854e-12
-6.09889e-13
3.56832e-12
-6.21917e-13
3.90524e-12
-6.35394e-13
4.25005e-12
-6.50358e-13
4.60357e-12
-6.66859e-13
4.96667e-12
-6.84976e-13
5.34024e-12
-7.0479e-13
5.72527e-12
-7.26379e-13
6.12276e-12
-7.49843e-13
6.53372e-12
-7.75299e-13
6.95928e-12
-8.02851e-13
7.40072e-12
-8.32645e-13
7.85933e-12
-8.64894e-13
8.3364e-12
-8.998e-13
8.8333e-12
-9.37495e-13
9.35169e-12
-9.78117e-13
9.89338e-12
-1.02189e-12
1.04602e-11
-1.06911e-12
1.1054e-11
-1.12006e-12
1.1677e-11
-1.17501e-12
1.23315e-11
-1.23429e-12
1.302e-11
-1.29832e-12
1.3745e-11
-1.36752e-12
1.45094e-11
-1.44217e-12
1.53166e-11
-1.52264e-12
1.61699e-11
-1.6095e-12
1.70733e-11
-1.70344e-12
1.80306e-11
-1.80513e-12
1.90461e-11
-1.91509e-12
2.01243e-11
-2.03395e-12
2.12707e-11
-2.16253e-12
2.24906e-11
-2.30164e-12
2.37902e-11
-2.45207e-12
2.51759e-11
-2.61469e-12
2.6655e-11
-2.79058e-12
2.82349e-11
-2.98096e-12
2.99237e-11
-3.18694e-12
3.17299e-11
-3.40957e-12
3.3663e-11
-3.64997e-12
3.57329e-11
-3.90931e-12
3.79503e-11
-4.18881e-12
4.03264e-11
-4.48969e-12
4.28732e-11
-4.81317e-12
4.56032e-11
-5.16046e-12
4.85292e-11
-5.5327e-12
5.16646e-11
-5.93079e-12
5.50229e-11
-6.35534e-12
5.86183e-11
-6.80674e-12
6.24645e-11
-7.28509e-12
6.65753e-11
-7.79006e-12
7.09636e-11
-8.32076e-12
7.56416e-11
-8.87556e-12
8.062e-11
-9.45193e-12
8.5908e-11
-1.00465e-11
9.15122e-11
-1.0655e-11
9.74358e-11
-1.12717e-11
1.03678e-10
-1.18892e-11
1.10234e-10
-1.24985e-11
1.17092e-10
-1.30886e-11
1.24235e-10
-1.36468e-11
1.31635e-10
-1.41577e-11
1.39258e-10
-1.46037e-11
1.47058e-10
-1.49646e-11
1.54976e-10
-1.52177e-11
1.62941e-10
-1.53375e-11
1.70868e-10
-1.52965e-11
1.78656e-10
-1.50645e-11
1.86187e-10
-1.46099e-11
1.93328e-10
-1.38996e-11
1.99925e-10
-1.29e-11
2.05813e-10
-1.15783e-11
2.10808e-10
-9.90338e-12
2.14714e-10
-7.84769e-12
2.17325e-10
-5.38918e-12
2.18427e-10
-2.51339e-12
2.17808e-10
7.83163e-13
2.15263e-10
4.49017e-12
2.10604e-10
8.57951e-12
2.03669e-10
1.30008e-11
1.94341e-10
1.76766e-11
1.82562e-10
2.24959e-11
1.6835e-10
2.73083e-11
1.51829e-10
3.19163e-11
1.33247e-10
3.60678e-11
1.13007e-10
3.94488e-11
9.16941e-11
4.16776e-11
7.01015e-11
4.23052e-11
4.92425e-11
4.08286e-11
3.0347e-11
3.67335e-11
1.48232e-11
2.96008e-11
4.18221e-12
1.93137e-11
6.57906e-12
-5.26825e-12
1.14571e-11
-1.80767e-11
3.07594e-11
-3.62321e-11
4.55264e-11
-5.79457e-11
5.55579e-11
-8.16785e-11
6.1241e-11
-1.06126e-10
6.32111e-11
-1.30215e-10
6.21838e-11
-1.53098e-10
5.8853e-11
-1.74142e-10
5.38452e-11
-1.92898e-10
4.77009e-11
-2.09085e-10
4.08721e-11
-2.22557e-10
3.37256e-11
-2.33281e-10
2.65529e-11
-2.41311e-10
1.95786e-11
-2.4677e-10
1.29698e-11
-2.4983e-10
6.84532e-12
-2.50697e-10
1.28284e-12
-2.49597e-10
-3.67245e-12
-2.46767e-10
-8.0032e-12
-2.42445e-10
-1.17126e-11
-2.36863e-10
-1.48199e-11
-2.30242e-10
-1.73577e-11
-2.22792e-10
-1.93651e-11
-2.14703e-10
-2.08884e-11
-2.06148e-10
-2.19763e-11
-1.97281e-10
-2.26787e-11
-1.88237e-10
-2.30445e-11
-1.79134e-10
-2.31215e-11
-1.70071e-10
-2.29545e-11
-1.61131e-10
-2.25853e-11
-1.52381e-10
-2.20522e-11
-1.43877e-10
-2.13896e-11
-1.3566e-10
-2.06272e-11
-1.27762e-10
-1.97922e-11
-1.20204e-10
-1.89077e-11
-1.13e-10
-1.79933e-11
-1.06158e-10
-1.70654e-11
-9.968e-11
-1.61384e-11
-9.35616e-11
-1.52219e-11
-8.77973e-11
-1.43263e-11
-8.23765e-11
-1.34573e-11
-7.72877e-11
-1.26209e-11
-7.25175e-11
-1.18201e-11
-6.80508e-11
-1.10576e-11
-6.38727e-11
-1.03355e-11
-5.99676e-11
-9.65372e-12
-5.63196e-11
-9.01202e-12
-5.29129e-11
-8.41029e-12
-4.97322e-11
-7.84744e-12
-4.67629e-11
-7.32202e-12
-4.39909e-11
-6.83259e-12
-4.14024e-11
-6.37733e-12
-3.89845e-11
-5.95438e-12
-3.67249e-11
-5.56208e-12
-3.46123e-11
-5.19863e-12
-3.26359e-11
-4.86208e-12
-3.07856e-11
-4.55061e-12
-2.90519e-11
-4.26252e-12
-2.74262e-11
-3.99618e-12
-2.59004e-11
-3.74996e-12
-2.44669e-11
-3.52236e-12
-2.31187e-11
-3.31203e-12
-2.18495e-11
-3.11771e-12
-2.06533e-11
-2.93813e-12
-1.95245e-11
-2.77215e-12
-1.8458e-11
-2.61867e-12
-1.74493e-11
-2.47675e-12
-1.6494e-11
-2.34547e-12
-1.55882e-11
-2.22398e-12
-1.4728e-11
-2.11159e-12
-1.39101e-11
-2.00762e-12
-1.31314e-11
-1.91145e-12
-1.2389e-11
-1.82244e-12
-1.16802e-11
-1.73999e-12
-1.10025e-11
-1.66363e-12
-1.03535e-11
-1.59298e-12
-9.73107e-12
-1.52762e-12
-9.13326e-12
-1.46721e-12
-8.55818e-12
-1.41136e-12
-8.00417e-12
-1.35984e-12
-7.46952e-12
-1.31229e-12
-6.9527e-12
-1.26848e-12
-6.45233e-12
-1.22816e-12
-5.96704e-12
-1.19107e-12
-5.49552e-12
-1.1571e-12
-5.03655e-12
-1.12615e-12
-4.58905e-12
-1.09808e-12
-4.15204e-12
-1.07268e-12
-3.72445e-12
-1.04972e-12
-3.30515e-12
-1.02912e-12
-2.89319e-12
-1.01086e-12
-2.48775e-12
-9.94876e-13
-2.088e-12
-9.81054e-13
-1.693e-12
-9.69312e-13
-1.30183e-12
-9.59637e-13
-9.13785e-13
-9.52038e-13
-5.2818e-13
-9.46426e-13
-1.44198e-13
-9.42666e-13
2.39078e-13
-9.40736e-13
6.22498e-13
-9.40734e-13
1.00676e-12
-9.42726e-13
1.39251e-12
-9.46657e-13
1.78054e-12
-9.52444e-13
2.17175e-12
-9.60119e-13
2.56701e-12
-9.69808e-13
2.96705e-12
-9.81601e-13
3.37264e-12
-9.95497e-13
3.78468e-12
-1.01147e-12
4.20415e-12
-1.02956e-12
4.63202e-12
-1.04991e-12
5.0692e-12
-1.07263e-12
5.51665e-12
-1.09786e-12
5.97541e-12
-1.12569e-12
6.44661e-12
-1.15623e-12
6.93141e-12
-1.1896e-12
7.43106e-12
-1.22597e-12
7.94689e-12
-1.26553e-12
8.48023e-12
-1.30851e-12
9.03252e-12
-1.35508e-12
9.60531e-12
-1.40544e-12
1.02003e-11
-1.45985e-12
1.08193e-11
-1.5187e-12
1.14641e-11
-1.58227e-12
1.21368e-11
-1.65085e-12
1.28396e-11
-1.72477e-12
1.3575e-11
-1.80447e-12
1.43454e-11
-1.89047e-12
1.51536e-11
-1.98324e-12
1.60025e-11
-2.08326e-12
1.68954e-11
-2.19118e-12
1.78357e-11
-2.30773e-12
1.88273e-11
-2.43362e-12
1.9874e-11
-2.56952e-12
2.09803e-11
-2.71617e-12
2.21512e-11
-2.87453e-12
2.33918e-11
-3.0457e-12
2.47077e-11
-3.23083e-12
2.61048e-11
-3.43102e-12
2.75899e-11
-3.64751e-12
2.917e-11
-3.88168e-12
3.08528e-11
-4.13498e-12
3.26465e-11
-4.40887e-12
3.45602e-11
-4.70489e-12
3.66037e-11
-5.0248e-12
3.87873e-11
-5.37055e-12
4.11221e-11
-5.74411e-12
4.36199e-11
-6.1474e-12
4.62935e-11
-6.58243e-12
4.91561e-11
-7.05118e-12
5.2222e-11
-7.55563e-12
5.55061e-11
-8.09761e-12
5.90241e-11
-8.67892e-12
6.27923e-11
-9.30129e-12
6.68274e-11
-9.96617e-12
7.11464e-11
-1.06746e-11
7.57664e-11
-1.1427e-11
8.07046e-11
-1.22234e-11
8.59776e-11
-1.3063e-11
9.16013e-11
-1.39441e-11
9.75901e-11
-1.48639e-11
1.03956e-10
-1.58181e-11
1.10711e-10
-1.68006e-11
1.17859e-10
-1.78037e-11
1.25405e-10
-1.88176e-11
1.33346e-10
-1.98298e-11
1.41672e-10
-2.0825e-11
1.50368e-10
-2.17846e-11
1.59408e-10
-2.26869e-11
1.68756e-10
-2.35063e-11
1.78366e-10
-2.42132e-11
1.88175e-10
-2.47739e-11
1.98108e-10
-2.51509e-11
2.08072e-10
-2.5302e-11
2.17957e-10
-2.51816e-11
2.27633e-10
-2.47407e-11
2.36951e-10
-2.39273e-11
2.45739e-10
-2.26881e-11
2.53808e-10
-2.09691e-11
2.60948e-10
-1.8718e-11
2.6693e-10
-1.58857e-11
2.71512e-10
-1.243e-11
2.74441e-10
-8.31795e-12
2.75458e-10
-3.5302e-12
2.74306e-10
1.93442e-12
2.70743e-10
8.05364e-12
2.64547e-10
1.47756e-11
2.55536e-10
2.20117e-11
2.43584e-10
2.96294e-11
2.28636e-10
3.74429e-11
2.1074e-10
4.52041e-11
1.90064e-10
5.2593e-11
1.66924e-10
5.92072e-11
1.41818e-10
6.45547e-11
1.15446e-10
6.80489e-11
8.87389e-11
6.90128e-11
6.28668e-11
6.6701e-11
3.9248e-11
6.03526e-11
1.95449e-11
4.93037e-11
5.68089e-12
3.31774e-11
1.22601e-11
-6.18369e-12
1.76407e-11
-2.10837e-11
4.56594e-11
-4.2014e-11
6.64564e-11
-6.68725e-11
8.04165e-11
-9.39305e-11
8.82986e-11
-1.21756e-10
9.10373e-11
-1.49184e-10
8.96112e-11
-1.75289e-10
8.49578e-11
-1.99369e-10
7.7926e-11
-2.20924e-10
6.92562e-11
-2.39627e-10
5.95747e-11
-2.553e-10
4.93988e-11
-2.6789e-10
3.91422e-11
-2.77441e-10
2.91296e-11
-2.84077e-10
1.96054e-11
-2.87977e-10
1.07456e-11
-2.89363e-10
2.66921e-12
-2.88483e-10
-4.55321e-12
-2.85596e-10
-1.08898e-11
-2.80968e-10
-1.63401e-11
-2.74861e-10
-2.09273e-11
-2.67525e-10
-2.46936e-11
-2.59197e-10
-2.76931e-11
-2.50096e-10
-2.99899e-11
-2.40421e-10
-3.16517e-11
-2.3035e-10
-3.27495e-11
-2.20041e-10
-3.33534e-11
-2.09631e-10
-3.35316e-11
-1.99237e-10
-3.33485e-11
-1.88958e-10
-3.28647e-11
-1.78875e-10
-3.21359e-11
-1.69052e-10
-3.12113e-11
-1.59543e-10
-3.01367e-11
-1.50385e-10
-2.89502e-11
-1.41607e-10
-2.76861e-11
-1.33226e-10
-2.63735e-11
-1.25255e-10
-2.50371e-11
-1.17696e-10
-2.36971e-11
-1.10548e-10
-2.23703e-11
-1.03804e-10
-2.10699e-11
-9.74545e-11
-1.98068e-11
-9.1487e-11
-1.85881e-11
-8.58872e-11
-1.74201e-11
-8.06389e-11
-1.63065e-11
-7.57241e-11
-1.52497e-11
-7.11262e-11
-1.42511e-11
-6.68277e-11
-1.3311e-11
-6.28103e-11
-1.2428e-11
-5.90564e-11
-1.16011e-11
-5.55495e-11
-1.08288e-11
-5.22732e-11
-1.01088e-11
-4.92118e-11
-9.43863e-12
-4.63505e-11
-8.8157e-12
-4.36752e-11
-8.23752e-12
-4.11725e-11
-7.70141e-12
-3.88299e-11
-7.20471e-12
-3.66357e-11
-6.74483e-12
-3.45789e-11
-6.31928e-12
-3.26494e-11
-5.92564e-12
-3.08378e-11
-5.56164e-12
-2.91351e-11
-5.22509e-12
-2.75334e-11
-4.91397e-12
-2.60249e-11
-4.62634e-12
-2.46028e-11
-4.36042e-12
-2.32604e-11
-4.11455e-12
-2.19919e-11
-3.88718e-12
-2.07918e-11
-3.67688e-12
-1.96549e-11
-3.48235e-12
-1.85768e-11
-3.30236e-12
-1.75528e-11
-3.13576e-12
-1.6579e-11
-2.98155e-12
-1.56517e-11
-2.8388e-12
-1.47674e-11
-2.70669e-12
-1.39231e-11
-2.58439e-12
-1.31157e-11
-2.47117e-12
-1.23425e-11
-2.36636e-12
-1.16009e-11
-2.26935e-12
-1.08884e-11
-2.17963e-12
-1.02031e-11
-2.09673e-12
-9.5427e-12
-2.0202e-12
-8.9054e-12
-1.94959e-12
-8.28931e-12
-1.88454e-12
-7.69273e-12
-1.82471e-12
-7.11415e-12
-1.76976e-12
-6.55203e-12
-1.71938e-12
-6.00486e-12
-1.67334e-12
-5.47125e-12
-1.63151e-12
-4.95003e-12
-1.59373e-12
-4.44005e-12
-1.55973e-12
-3.94004e-12
-1.52923e-12
-3.44879e-12
-1.50214e-12
-2.96525e-12
-1.4784e-12
-2.48846e-12
-1.45791e-12
-2.01737e-12
-1.44049e-12
-1.55091e-12
-1.42608e-12
-1.0881e-12
-1.41471e-12
-6.28068e-13
-1.40635e-12
-1.69951e-13
-1.40086e-12
2.87199e-13
-1.39812e-12
7.44425e-13
-1.39814e-12
1.20271e-12
-1.401e-12
1.6629e-12
-1.40681e-12
2.12581e-12
-1.41552e-12
2.59242e-12
-1.42706e-12
3.06377e-12
-1.44146e-12
3.54088e-12
-1.45887e-12
4.02469e-12
-1.47939e-12
4.51623e-12
-1.50308e-12
5.01657e-12
-1.53001e-12
5.52686e-12
-1.56029e-12
6.04821e-12
-1.59409e-12
6.58182e-12
-1.63156e-12
7.12893e-12
-1.67289e-12
7.69086e-12
-1.71825e-12
8.269e-12
-1.76782e-12
8.86478e-12
-1.82183e-12
9.47977e-12
-1.88054e-12
1.01157e-11
-1.9443e-12
1.07741e-11
-2.01343e-12
1.1457e-11
-2.08824e-12
1.21663e-11
-2.16909e-12
1.2904e-11
-2.25643e-12
1.36726e-11
-2.35073e-12
1.44743e-11
-2.45249e-12
1.53119e-11
-2.56222e-12
1.6188e-11
-2.68055e-12
1.71059e-11
-2.8082e-12
1.80686e-11
-2.94592e-12
1.90797e-11
-3.09445e-12
2.01428e-11
-3.25461e-12
2.12624e-11
-3.42739e-12
2.24427e-11
-3.61392e-12
2.36887e-11
-3.81536e-12
2.50053e-11
-4.03289e-12
2.63982e-11
-4.26775e-12
2.78737e-11
-4.52143e-12
2.94383e-11
-4.79562e-12
3.1099e-11
-5.09203e-12
3.28636e-11
-5.41241e-12
3.47406e-11
-5.75873e-12
3.67391e-11
-6.13322e-12
3.88686e-11
-6.53817e-12
4.11395e-11
-6.97588e-12
4.35631e-11
-7.44875e-12
4.61517e-11
-7.95947e-12
4.8918e-11
-8.51081e-12
5.1876e-11
-9.10561e-12
5.50402e-11
-9.74676e-12
5.84263e-11
-1.04372e-11
6.20506e-11
-1.11797e-11
6.59303e-11
-1.1977e-11
7.00832e-11
-1.28317e-11
7.4528e-11
-1.37461e-11
7.92836e-11
-1.47219e-11
8.43695e-11
-1.57605e-11
8.9805e-11
-1.68627e-11
9.56093e-11
-1.80279e-11
1.01801e-10
-1.92548e-11
1.08396e-10
-2.05403e-11
1.15413e-10
-2.18802e-11
1.22862e-10
-2.32677e-11
1.30756e-10
-2.4694e-11
1.39099e-10
-2.61471e-11
1.47893e-10
-2.76119e-11
1.57133e-10
-2.90699e-11
1.66807e-10
-3.04983e-11
1.76892e-10
-3.18698e-11
1.87357e-10
-3.31518e-11
1.98157e-10
-3.43067e-11
2.09235e-10
-3.52913e-11
2.20518e-10
-3.60561e-11
2.31913e-10
-3.65463e-11
2.43312e-10
-3.6701e-11
2.54585e-10
-3.64539e-11
2.65579e-10
-3.57346e-11
2.7612e-10
-3.44685e-11
2.86011e-10
-3.25795e-11
2.95034e-10
-2.99914e-11
3.02946e-10
-2.66308e-11
3.0949e-10
-2.24299e-11
3.14391e-10
-1.73308e-11
3.17364e-10
-1.12909e-11
3.18121e-10
-4.28714e-12
3.1638e-10
3.67612e-12
3.11873e-10
1.25603e-11
3.04364e-10
2.2284e-11
2.93663e-10
3.2713e-11
2.79642e-10
4.36502e-11
2.62261e-10
5.48244e-11
2.41587e-10
6.5878e-11
2.17825e-10
7.63555e-11
1.9134e-10
8.5692e-11
1.6269e-10
9.32051e-11
1.32647e-10
9.80918e-11
1.02225e-10
9.9435e-11
7.2697e-11
9.62287e-11
4.56192e-11
8.74307e-11
2.28625e-11
7.20606e-11
6.69293e-12
4.93466e-11
1.89531e-11
-6.71391e-12
2.43544e-11
-2.29191e-11
6.18651e-11
-4.5645e-11
8.91833e-11
-7.25758e-11
1.07347e-10
-1.01842e-10
1.17565e-10
-1.31923e-10
1.21119e-10
-1.61592e-10
1.19281e-10
-1.89879e-10
1.13245e-10
-2.16044e-10
1.0409e-10
-2.39551e-10
9.27636e-11
-2.60046e-10
8.00701e-11
-2.77329e-10
6.66809e-11
-2.91326e-10
5.314e-11
-3.02073e-10
3.98767e-11
-3.09686e-10
2.72185e-11
-3.14345e-10
1.54052e-11
-3.16276e-10
4.60057e-12
-3.15736e-10
-5.0942e-12
-3.12996e-10
-1.36296e-11
-3.08336e-10
-2.09993e-11
-3.02035e-10
-2.72287e-11
-2.9436e-10
-3.23683e-11
-2.85566e-10
-3.6487e-11
-2.7589e-10
-3.96659e-11
-2.65548e-10
-4.19934e-11
-2.54736e-10
-4.35615e-11
-2.43627e-10
-4.44627e-11
-2.32371e-10
-4.47865e-11
-2.21101e-10
-4.46193e-11
-2.09925e-10
-4.40411e-11
-1.98935e-10
-4.31256e-11
-1.88206e-10
-4.19405e-11
-1.77797e-10
-4.05455e-11
-1.67753e-10
-3.89935e-11
-1.58109e-10
-3.73309e-11
-1.48885e-10
-3.55967e-11
-1.40098e-10
-3.3825e-11
-1.31752e-10
-3.20431e-11
-1.23848e-10
-3.02747e-11
-1.1638e-10
-2.85373e-11
-1.09341e-10
-2.68465e-11
-1.02716e-10
-2.52125e-11
-9.64916e-11
-2.36441e-11
-9.06513e-11
-2.21471e-11
-8.51768e-11
-2.07243e-11
-8.00497e-11
-1.93782e-11
-7.52511e-11
-1.81094e-11
-7.07622e-11
-1.69169e-11
-6.65644e-11
-1.57991e-11
-6.26393e-11
-1.4754e-11
-5.89691e-11
-1.37789e-11
-5.5537e-11
-1.28705e-11
-5.23269e-11
-1.20258e-11
-4.93234e-11
-1.12412e-11
-4.65118e-11
-1.05131e-11
-4.38784e-11
-9.83818e-12
-4.14103e-11
-9.21296e-12
-3.90956e-11
-8.63409e-12
-3.69229e-11
-8.09832e-12
-3.48819e-11
-7.60268e-12
-3.29627e-11
-7.14428e-12
-3.11565e-11
-6.72034e-12
-2.94548e-11
-6.32824e-12
-2.78498e-11
-5.9656e-12
-2.63343e-11
-5.63017e-12
-2.49017e-11
-5.31986e-12
-2.35458e-11
-5.03274e-12
-2.22611e-11
-4.76709e-12
-2.10423e-11
-4.52128e-12
-1.98845e-11
-4.29375e-12
-1.87831e-11
-4.08305e-12
-1.77341e-11
-3.88795e-12
-1.67335e-11
-3.70728e-12
-1.57778e-11
-3.54003e-12
-1.48639e-11
-3.38522e-12
-1.39884e-11
-3.24187e-12
-1.31486e-11
-3.10923e-12
-1.23418e-11
-2.98653e-12
-1.15655e-11
-2.87313e-12
-1.08173e-11
-2.76837e-12
-1.00952e-11
-2.67172e-12
-9.39708e-12
-2.58263e-12
-8.72095e-12
-2.50068e-12
-8.06511e-12
-2.42552e-12
-7.4279e-12
-2.35666e-12
-6.80766e-12
-2.29373e-12
-6.2028e-12
-2.23645e-12
-5.61183e-12
-2.18462e-12
-5.03345e-12
-2.13799e-12
-4.46638e-12
-2.09627e-12
-3.90932e-12
-2.05921e-12
-3.36095e-12
-2.02671e-12
-2.82014e-12
-1.99868e-12
-2.28578e-12
-1.97493e-12
-1.75677e-12
-1.95528e-12
-1.23191e-12
-1.93968e-12
-7.10091e-13
-1.92811e-12
-1.90323e-13
-1.92054e-12
3.28357e-13
-1.91687e-12
8.47002e-13
-1.91701e-12
1.36676e-12
-1.92095e-12
1.88873e-12
-1.92883e-12
2.41391e-12
-1.94072e-12
2.94329e-12
-1.95658e-12
3.47796e-12
-1.97641e-12
4.01908e-12
-2.00029e-12
4.56784e-12
-2.02836e-12
5.12537e-12
-2.06077e-12
5.69286e-12
-2.09764e-12
6.27158e-12
-2.13913e-12
6.8628e-12
-2.18543e-12
7.46788e-12
-2.23675e-12
8.08823e-12
-2.29331e-12
8.72537e-12
-2.35538e-12
9.38086e-12
-2.42326e-12
1.00563e-11
-2.49723e-12
1.07533e-11
-2.57765e-12
1.1474e-11
-2.66491e-12
1.22202e-11
-2.75949e-12
1.29941e-11
-2.8619e-12
1.37976e-11
-2.9726e-12
1.46334e-11
-3.09214e-12
1.55039e-11
-3.22115e-12
1.64119e-11
-3.36035e-12
1.73602e-11
-3.51049e-12
1.83521e-11
-3.67239e-12
1.93909e-11
-3.84695e-12
2.04805e-11
-4.03524e-12
2.16245e-11
-4.23836e-12
2.28271e-11
-4.45741e-12
2.40931e-11
-4.69364e-12
2.54275e-11
-4.94847e-12
2.68356e-11
-5.22353e-12
2.83233e-11
-5.52053e-12
2.98968e-11
-5.84124e-12
3.15628e-11
-6.18757e-12
3.33288e-11
-6.56173e-12
3.52026e-11
-6.96607e-12
3.71927e-11
-7.40298e-12
3.93086e-11
-7.87504e-12
4.15602e-11
-8.38512e-12
4.39584e-11
-8.93635e-12
4.65147e-11
-9.53198e-12
4.92413e-11
-1.01753e-11
5.21517e-11
-1.08698e-11
5.52601e-11
-1.16192e-11
5.85815e-11
-1.24271e-11
6.2132e-11
-1.32975e-11
6.59285e-11
-1.4234e-11
6.99891e-11
-1.52403e-11
7.43323e-11
-1.63202e-11
7.89775e-11
-1.74769e-11
8.39446e-11
-1.87132e-11
8.92541e-11
-2.00315e-11
9.49267e-11
-2.14332e-11
1.00983e-10
-2.29189e-11
1.07443e-10
-2.44879e-11
1.14326e-10
-2.61379e-11
1.2165e-10