/*--------------------------------*- C++ -*----------------------------------*\
| =========                 |                                                 |
| \\      /  F ield         | OpenFOAM: The Open Source CFD Toolbox           |
|  \\    /   O peration     | Version:  2412                                  |
|   \\  /    A nd           | Website:  www.openfoam.com                      |
|    \\/     M anipulation  |                                                 |
\*---------------------------------------------------------------------------*/
FoamFile
{
    version     2.0;
    format      ascii;
    arch        "LSB;label=32;scalar=64";
    class       volVectorField;
    location    "700";
    object      U;
}
// * * * * * * * * * * * * * * * * * * * * * * * * * * * * * * * * * * * * * //

dimensions      [0 1 -1 0 0 0 0];

internalField   nonuniform List<vector> 
40000
(
(4.60418e-08 -4.90895e-08 0)
(-1.50768e-07 2.01674e-08 0)
(-7.27463e-07 8.49343e-08 0)
(-1.57512e-06 1.24397e-07 0)
(-2.58619e-06 1.42344e-07 0)
(-3.66791e-06 1.45215e-07 0)
(-4.74919e-06 1.38355e-07 0)
(-5.77917e-06 1.2561e-07 0)
(-6.7228e-06 1.09678e-07 0)
(-7.55788e-06 9.22078e-08 0)
(-8.27198e-06 7.45324e-08 0)
(-8.85988e-06 5.73072e-08 0)
(-9.32209e-06 4.11063e-08 0)
(-9.66289e-06 2.61945e-08 0)
(-9.88967e-06 1.27654e-08 0)
(-1.00116e-05 9.07592e-10 0)
(-1.00389e-05 -9.36866e-09 0)
(-9.98272e-06 -1.80807e-08 0)
(-9.854e-06 -2.53627e-08 0)
(-9.66367e-06 -3.13023e-08 0)
(-9.42213e-06 -3.59956e-08 0)
(-9.13919e-06 -3.95728e-08 0)
(-8.82375e-06 -4.21401e-08 0)
(-8.48404e-06 -4.38108e-08 0)
(-8.12723e-06 -4.47457e-08 0)
(-7.75974e-06 -4.50628e-08 0)
(-7.38715e-06 -4.47883e-08 0)
(-7.01402e-06 -4.41108e-08 0)
(-6.6444e-06 -4.30852e-08 0)
(-6.2815e-06 -4.17894e-08 0)
(-5.92792e-06 -4.02909e-08 0)
(-5.58567e-06 -3.8638e-08 0)
(-5.25627e-06 -3.68795e-08 0)
(-4.94083e-06 -3.50894e-08 0)
(-4.64009e-06 -3.32474e-08 0)
(-4.3544e-06 -3.13963e-08 0)
(-4.08396e-06 -2.96135e-08 0)
(-3.82862e-06 -2.78282e-08 0)
(-3.58822e-06 -2.61536e-08 0)
(-3.3623e-06 -2.44722e-08 0)
(-3.15046e-06 -2.29711e-08 0)
(-2.95206e-06 -2.14321e-08 0)
(-2.76646e-06 -2.00726e-08 0)
(-2.59319e-06 -1.87888e-08 0)
(-2.43136e-06 -1.75415e-08 0)
(-2.28043e-06 -1.64127e-08 0)
(-2.13977e-06 -1.53352e-08 0)
(-2.00857e-06 -1.43237e-08 0)
(-1.88628e-06 -1.34305e-08 0)
(-1.77239e-06 -1.26025e-08 0)
(-1.66621e-06 -1.17929e-08 0)
(-1.56716e-06 -1.10369e-08 0)
(-1.47478e-06 -1.03582e-08 0)
(-1.38859e-06 -9.72837e-09 0)
(-1.30809e-06 -9.13324e-09 0)
(-1.23286e-06 -8.59716e-09 0)
(-1.16252e-06 -8.11884e-09 0)
(-1.0967e-06 -7.67604e-09 0)
(-1.03504e-06 -7.25932e-09 0)
(-9.77226e-07 -6.87394e-09 0)
(-9.22962e-07 -6.51688e-09 0)
(-8.71973e-07 -6.18351e-09 0)
(-8.24009e-07 -5.87403e-09 0)
(-7.78842e-07 -5.59275e-09 0)
(-7.36257e-07 -5.33467e-09 0)
(-6.96056e-07 -5.09797e-09 0)
(-6.5806e-07 -4.87871e-09 0)
(-6.22102e-07 -4.67607e-09 0)
(-5.88032e-07 -4.48695e-09 0)
(-5.55704e-07 -4.3085e-09 0)
(-5.24986e-07 -4.14181e-09 0)
(-4.95755e-07 -3.99338e-09 0)
(-4.67902e-07 -3.86006e-09 0)
(-4.41327e-07 -3.73673e-09 0)
(-4.1594e-07 -3.61954e-09 0)
(-3.91651e-07 -3.50672e-09 0)
(-3.68373e-07 -3.40545e-09 0)
(-3.46026e-07 -3.31256e-09 0)
(-3.24539e-07 -3.23137e-09 0)
(-3.03848e-07 -3.15069e-09 0)
(-2.83896e-07 -3.07601e-09 0)
(-2.64631e-07 -3.00299e-09 0)
(-2.45997e-07 -2.93347e-09 0)
(-2.27936e-07 -2.86984e-09 0)
(-2.10392e-07 -2.81768e-09 0)
(-1.93331e-07 -2.77883e-09 0)
(-1.76711e-07 -2.74465e-09 0)
(-1.60489e-07 -2.70819e-09 0)
(-1.44631e-07 -2.66848e-09 0)
(-1.291e-07 -2.62885e-09 0)
(-1.13859e-07 -2.59422e-09 0)
(-9.88744e-08 -2.56796e-09 0)
(-8.41039e-08 -2.54921e-09 0)
(-6.95162e-08 -2.53477e-09 0)
(-5.50914e-08 -2.52179e-09 0)
(-4.07986e-08 -2.51022e-09 0)
(-2.65985e-08 -2.50309e-09 0)
(-1.24684e-08 -2.50117e-09 0)
(1.60526e-09 -2.49748e-09 0)
(1.56549e-08 -2.48707e-09 0)
(2.97281e-08 -2.47741e-09 0)
(4.38615e-08 -2.48035e-09 0)
(5.80752e-08 -2.49741e-09 0)
(7.23818e-08 -2.5193e-09 0)
(8.68027e-08 -2.53708e-09 0)
(1.01377e-07 -2.55227e-09 0)
(1.1615e-07 -2.57314e-09 0)
(1.31152e-07 -2.60448e-09 0)
(1.46404e-07 -2.64158e-09 0)
(1.61934e-07 -2.67413e-09 0)
(1.77783e-07 -2.6982e-09 0)
(1.94e-07 -2.7225e-09 0)
(2.10619e-07 -2.75836e-09 0)
(2.27672e-07 -2.80874e-09 0)
(2.45192e-07 -2.86814e-09 0)
(2.63225e-07 -2.92982e-09 0)
(2.81823e-07 -2.99229e-09 0)
(3.01039e-07 -3.05852e-09 0)
(3.20926e-07 -3.13392e-09 0)
(3.41534e-07 -3.21981e-09 0)
(3.62917e-07 -3.30992e-09 0)
(3.85136e-07 -3.39816e-09 0)
(4.08266e-07 -3.48862e-09 0)
(4.3238e-07 -3.59082e-09 0)
(4.57553e-07 -3.70765e-09 0)
(4.83865e-07 -3.83419e-09 0)
(5.1141e-07 -3.9669e-09 0)
(5.40291e-07 -4.10754e-09 0)
(5.7061e-07 -4.25906e-09 0)
(6.02475e-07 -4.42155e-09 0)
(6.36005e-07 -4.59636e-09 0)
(6.71341e-07 -4.79317e-09 0)
(7.08632e-07 -5.01997e-09 0)
(7.48023e-07 -5.26802e-09 0)
(7.89679e-07 -5.51945e-09 0)
(8.3379e-07 -5.76702e-09 0)
(8.8057e-07 -6.02513e-09 0)
(9.30245e-07 -6.32116e-09 0)
(9.83039e-07 -6.66912e-09 0)
(1.03919e-06 -7.06082e-09 0)
(1.09896e-06 -7.48325e-09 0)
(1.16269e-06 -7.92906e-09 0)
(1.23069e-06 -8.39343e-09 0)
(1.30331e-06 -8.87278e-09 0)
(1.38092e-06 -9.37414e-09 0)
(1.46398e-06 -9.92498e-09 0)
(1.5529e-06 -1.05571e-08 0)
(1.64816e-06 -1.12798e-08 0)
(1.75024e-06 -1.20794e-08 0)
(1.85968e-06 -1.29386e-08 0)
(1.97706e-06 -1.38472e-08 0)
(2.10298e-06 -1.47982e-08 0)
(2.23807e-06 -1.57884e-08 0)
(2.38304e-06 -1.68359e-08 0)
(2.53857e-06 -1.79753e-08 0)
(2.70538e-06 -1.92248e-08 0)
(2.88417e-06 -2.05765e-08 0)
(3.07566e-06 -2.20165e-08 0)
(3.28059e-06 -2.35434e-08 0)
(3.49966e-06 -2.51675e-08 0)
(3.73354e-06 -2.68982e-08 0)
(3.98282e-06 -2.8728e-08 0)
(4.24799e-06 -3.06216e-08 0)
(4.52944e-06 -3.25476e-08 0)
(4.82744e-06 -3.45024e-08 0)
(5.14204e-06 -3.64821e-08 0)
(5.47304e-06 -3.84698e-08 0)
(5.81995e-06 -4.04323e-08 0)
(6.18191e-06 -4.23169e-08 0)
(6.55768e-06 -4.40741e-08 0)
(6.94555e-06 -4.56624e-08 0)
(7.34321e-06 -4.70249e-08 0)
(7.74775e-06 -4.80879e-08 0)
(8.15557e-06 -4.8763e-08 0)
(8.56226e-06 -4.89466e-08 0)
(8.96261e-06 -4.85365e-08 0)
(9.35051e-06 -4.74222e-08 0)
(9.71891e-06 -4.54815e-08 0)
(1.00598e-05 -4.2586e-08 0)
(1.03643e-05 -3.85928e-08 0)
(1.06224e-05 -3.33654e-08 0)
(1.08236e-05 -2.67694e-08 0)
(1.09565e-05 -1.86876e-08 0)
(1.10092e-05 -9.02126e-09 0)
(1.09698e-05 2.31861e-09 0)
(1.08265e-05 1.5357e-08 0)
(1.05681e-05 3.0079e-08 0)
(1.01849e-05 4.63878e-08 0)
(9.66935e-06 6.40671e-08 0)
(9.01695e-06 8.2777e-08 0)
(8.22776e-06 1.01953e-07 0)
(7.30788e-06 1.20748e-07 0)
(6.27152e-06 1.3786e-07 0)
(5.14352e-06 1.5135e-07 0)
(3.9625e-06 1.58342e-07 0)
(2.78455e-06 1.54633e-07 0)
(1.68713e-06 1.34387e-07 0)
(7.71077e-07 9.08197e-08 0)
(1.52188e-07 2.00819e-08 0)
(-5.28273e-08 -5.52373e-08 0)
(-3.11513e-08 1.51353e-07 0)
(-8.42149e-07 8.01226e-07 0)
(-2.44758e-06 1.39046e-06 0)
(-4.62568e-06 1.7949e-06 0)
(-7.1635e-06 2.01576e-06 0)
(-9.87139e-06 2.08462e-06 0)
(-1.25924e-05 2.03807e-06 0)
(-1.5206e-05 1.90886e-06 0)
(-1.76244e-05 1.72398e-06 0)
(-1.97877e-05 1.50453e-06 0)
(-2.16591e-05 1.26714e-06 0)
(-2.322e-05 1.02426e-06 0)
(-2.44665e-05 7.85298e-07 0)
(-2.54053e-05 5.57049e-07 0)
(-2.60513e-05 3.44247e-07 0)
(-2.6425e-05 1.50005e-07 0)
(-2.65509e-05 -2.38599e-08 0)
(-2.64554e-05 -1.7647e-07 0)
(-2.61661e-05 -3.0789e-07 0)
(-2.57102e-05 -4.18684e-07 0)
(-2.51144e-05 -5.09902e-07 0)
(-2.4404e-05 -5.82868e-07 0)
(-2.36022e-05 -6.39108e-07 0)
(-2.27308e-05 -6.80326e-07 0)
(-2.18089e-05 -7.0812e-07 0)
(-2.08536e-05 -7.24323e-07 0)
(-1.988e-05 -7.30431e-07 0)
(-1.89009e-05 -7.28073e-07 0)
(-1.7927e-05 -7.18624e-07 0)
(-1.69675e-05 -7.03445e-07 0)
(-1.60298e-05 -6.83661e-07 0)
(-1.51194e-05 -6.60333e-07 0)
(-1.42411e-05 -6.34412e-07 0)
(-1.33979e-05 -6.06681e-07 0)
(-1.25923e-05 -5.77786e-07 0)
(-1.18255e-05 -5.48281e-07 0)
(-1.10983e-05 -5.18746e-07 0)
(-1.04106e-05 -4.89373e-07 0)
(-9.76208e-06 -4.60727e-07 0)
(-9.15188e-06 -4.32771e-07 0)
(-8.57889e-06 -4.05971e-07 0)
(-8.04165e-06 -3.80105e-07 0)
(-7.53873e-06 -3.55637e-07 0)
(-7.06847e-06 -3.3239e-07 0)
(-6.62903e-06 -3.10375e-07 0)
(-6.21886e-06 -2.89779e-07 0)
(-5.83623e-06 -2.70407e-07 0)
(-5.47927e-06 -2.52236e-07 0)
(-5.14637e-06 -2.35363e-07 0)
(-4.836e-06 -2.19665e-07 0)
(-4.54653e-06 -2.05017e-07 0)
(-4.27652e-06 -1.91424e-07 0)
(-4.02459e-06 -1.78849e-07 0)
(-3.78942e-06 -1.67186e-07 0)
(-3.56975e-06 -1.56369e-07 0)
(-3.36447e-06 -1.46385e-07 0)
(-3.17247e-06 -1.37175e-07 0)
(-2.99274e-06 -1.28666e-07 0)
(-2.82435e-06 -1.20803e-07 0)
(-2.66646e-06 -1.13544e-07 0)
(-2.51826e-06 -1.06837e-07 0)
(-2.379e-06 -1.0064e-07 0)
(-2.24801e-06 -9.49131e-08 0)
(-2.12466e-06 -8.9628e-08 0)
(-2.00837e-06 -8.47464e-08 0)
(-1.89859e-06 -8.02399e-08 0)
(-1.79483e-06 -7.60747e-08 0)
(-1.69664e-06 -7.22262e-08 0)
(-1.6036e-06 -6.86652e-08 0)
(-1.51533e-06 -6.5366e-08 0)
(-1.43148e-06 -6.23088e-08 0)
(-1.3517e-06 -5.94839e-08 0)
(-1.27569e-06 -5.68761e-08 0)
(-1.20316e-06 -5.44674e-08 0)
(-1.13387e-06 -5.2239e-08 0)
(-1.06758e-06 -5.01678e-08 0)
(-1.00406e-06 -4.82507e-08 0)
(-9.43103e-07 -4.64742e-08 0)
(-8.84494e-07 -4.48398e-08 0)
(-8.28058e-07 -4.33274e-08 0)
(-7.73639e-07 -4.19444e-08 0)
(-7.21092e-07 -4.06678e-08 0)
(-6.70272e-07 -3.94877e-08 0)
(-6.21032e-07 -3.83917e-08 0)
(-5.73224e-07 -3.73857e-08 0)
(-5.26723e-07 -3.64783e-08 0)
(-4.81414e-07 -3.56569e-08 0)
(-4.37191e-07 -3.49174e-08 0)
(-3.93962e-07 -3.42541e-08 0)
(-3.51626e-07 -3.36555e-08 0)
(-3.10088e-07 -3.31194e-08 0)
(-2.69254e-07 -3.26444e-08 0)
(-2.29017e-07 -3.22291e-08 0)
(-1.8928e-07 -3.18806e-08 0)
(-1.49975e-07 -3.15973e-08 0)
(-1.11028e-07 -3.1369e-08 0)
(-7.23477e-08 -3.12008e-08 0)
(-3.38553e-08 -3.11037e-08 0)
(4.51268e-09 -3.10665e-08 0)
(4.28252e-08 -3.1067e-08 0)
(8.11683e-08 -3.11043e-08 0)
(1.19638e-07 -3.11977e-08 0)
(1.58328e-07 -3.1364e-08 0)
(1.97308e-07 -3.1602e-08 0)
(2.36631e-07 -3.1895e-08 0)
(2.76366e-07 -3.22342e-08 0)
(3.16609e-07 -3.26297e-08 0)
(3.57466e-07 -3.30985e-08 0)
(3.99034e-07 -3.36446e-08 0)
(4.41395e-07 -3.42547e-08 0)
(4.84629e-07 -3.49173e-08 0)
(5.28831e-07 -3.56405e-08 0)
(5.74108e-07 -3.64431e-08 0)
(6.20572e-07 -3.73374e-08 0)
(6.68337e-07 -3.83234e-08 0)
(7.1752e-07 -3.93957e-08 0)
(7.68248e-07 -4.05539e-08 0)
(8.20654e-07 -4.18049e-08 0)
(8.74883e-07 -4.31643e-08 0)
(9.31092e-07 -4.46468e-08 0)
(9.89442e-07 -4.6254e-08 0)
(1.05009e-06 -4.79812e-08 0)
(1.11321e-06 -4.98366e-08 0)
(1.179e-06 -5.18407e-08 0)
(1.2477e-06 -5.40093e-08 0)
(1.31952e-06 -5.63484e-08 0)
(1.39473e-06 -5.88653e-08 0)
(1.47358e-06 -6.15778e-08 0)
(1.55636e-06 -6.45075e-08 0)
(1.64338e-06 -6.76685e-08 0)
(1.73494e-06 -7.10713e-08 0)
(1.83142e-06 -7.47431e-08 0)
(1.93325e-06 -7.87268e-08 0)
(2.04086e-06 -8.30526e-08 0)
(2.15471e-06 -8.77298e-08 0)
(2.27527e-06 -9.27616e-08 0)
(2.40306e-06 -9.81722e-08 0)
(2.53871e-06 -1.04023e-07 0)
(2.68288e-06 -1.10378e-07 0)
(2.83625e-06 -1.17279e-07 0)
(2.99957e-06 -1.24757e-07 0)
(3.17369e-06 -1.32859e-07 0)
(3.35948e-06 -1.41634e-07 0)
(3.55787e-06 -1.51118e-07 0)
(3.76987e-06 -1.61337e-07 0)
(3.99658e-06 -1.72353e-07 0)
(4.23922e-06 -1.84267e-07 0)
(4.4991e-06 -1.97172e-07 0)
(4.77756e-06 -2.11131e-07 0)
(5.07605e-06 -2.26202e-07 0)
(5.39611e-06 -2.42442e-07 0)
(5.73932e-06 -2.59897e-07 0)
(6.10738e-06 -2.78594e-07 0)
(6.50202e-06 -2.98578e-07 0)
(6.92508e-06 -3.19921e-07 0)
(7.37847e-06 -3.42682e-07 0)
(7.86407e-06 -3.66877e-07 0)
(8.38377e-06 -3.92484e-07 0)
(8.93938e-06 -4.19454e-07 0)
(9.53269e-06 -4.47727e-07 0)
(1.01654e-05 -4.77226e-07 0)
(1.08388e-05 -5.07829e-07 0)
(1.15543e-05 -5.39308e-07 0)
(1.23127e-05 -5.71356e-07 0)
(1.31142e-05 -6.03629e-07 0)
(1.39588e-05 -6.35705e-07 0)
(1.48456e-05 -6.67073e-07 0)
(1.57731e-05 -6.97113e-07 0)
(1.67386e-05 -7.25045e-07 0)
(1.77383e-05 -7.49976e-07 0)
(1.87672e-05 -7.70906e-07 0)
(1.98188e-05 -7.86683e-07 0)
(2.08849e-05 -7.96015e-07 0)
(2.19554e-05 -7.97475e-07 0)
(2.30182e-05 -7.89478e-07 0)
(2.40591e-05 -7.70346e-07 0)
(2.50615e-05 -7.38317e-07 0)
(2.60066e-05 -6.91559e-07 0)
(2.6873e-05 -6.28253e-07 0)
(2.76372e-05 -5.46619e-07 0)
(2.82734e-05 -4.45007e-07 0)
(2.87542e-05 -3.22002e-07 0)
(2.90506e-05 -1.76549e-07 0)
(2.91328e-05 -8.0964e-09 0)
(2.89711e-05 1.83268e-07 0)
(2.8537e-05 3.96552e-07 0)
(2.78045e-05 6.29656e-07 0)
(2.67517e-05 8.79051e-07 0)
(2.53632e-05 1.13939e-06 0)
(2.36327e-05 1.40314e-06 0)
(2.15656e-05 1.65997e-06 0)
(1.91835e-05 1.89615e-06 0)
(1.65278e-05 2.09366e-06 0)
(1.36651e-05 2.22934e-06 0)
(1.06922e-05 2.27402e-06 0)
(7.74148e-06 2.19237e-06 0)
(4.98398e-06 1.94513e-06 0)
(2.62571e-06 1.49938e-06 0)
(8.95486e-07 8.5574e-07 0)
(3.01166e-08 1.53049e-07 0)
(-1.04179e-07 7.67252e-07 0)
(-1.50872e-06 2.43225e-06 0)
(-3.99778e-06 3.8176e-06 0)
(-7.24079e-06 4.77587e-06 0)
(-1.09562e-05 5.31584e-06 0)
(-1.49007e-05 5.49819e-06 0)
(-1.8867e-05 5.39766e-06 0)
(-2.26909e-05 5.08588e-06 0)
(-2.62482e-05 4.62546e-06 0)
(-2.9451e-05 4.06822e-06 0)
(-3.22424e-05 3.45621e-06 0)
(-3.45911e-05 2.82239e-06 0)
(-3.64869e-05 2.19226e-06 0)
(-3.79353e-05 1.58492e-06 0)
(-3.89546e-05 1.01403e-06 0)
(-3.95719e-05 4.89101e-07 0)
(-3.98203e-05 1.58479e-08 0)
(-3.97371e-05 -4.0261e-07 0)
(-3.93613e-05 -7.65504e-07 0)
(-3.87324e-05 -1.07378e-06 0)
(-3.7889e-05 -1.32975e-06 0)
(-3.68683e-05 -1.53653e-06 0)
(-3.5705e-05 -1.69794e-06 0)
(-3.4431e-05 -1.81836e-06 0)
(-3.30755e-05 -1.90192e-06 0)
(-3.16642e-05 -1.95328e-06 0)
(-3.022e-05 -1.97665e-06 0)
(-2.87625e-05 -1.97617e-06 0)
(-2.73084e-05 -1.95575e-06 0)
(-2.58718e-05 -1.91893e-06 0)
(-2.44641e-05 -1.86891e-06 0)
(-2.30947e-05 -1.8086e-06 0)
(-2.17705e-05 -1.74058e-06 0)
(-2.04971e-05 -1.66702e-06 0)
(-1.92781e-05 -1.58983e-06 0)
(-1.81161e-05 -1.51069e-06 0)
(-1.70124e-05 -1.43079e-06 0)
(-1.59673e-05 -1.35134e-06 0)
(-1.49805e-05 -1.27323e-06 0)
(-1.40508e-05 -1.19709e-06 0)
(-1.31768e-05 -1.12354e-06 0)
(-1.23566e-05 -1.05288e-06 0)
(-1.15881e-05 -9.85481e-07 0)
(-1.08688e-05 -9.21427e-07 0)
(-1.01963e-05 -8.60839e-07 0)
(-9.56801e-06 -8.038e-07 0)
(-8.98138e-06 -7.50206e-07 0)
(-8.43388e-06 -7.00002e-07 0)
(-7.92308e-06 -6.53144e-07 0)
(-7.44652e-06 -6.09444e-07 0)
(-7.00185e-06 -5.6877e-07 0)
(-6.58691e-06 -5.31012e-07 0)
(-6.19958e-06 -4.95991e-07 0)
(-5.83786e-06 -4.63515e-07 0)
(-5.49992e-06 -4.33443e-07 0)
(-5.18401e-06 -4.05628e-07 0)
(-4.88846e-06 -3.79902e-07 0)
(-4.61175e-06 -3.56121e-07 0)
(-4.35245e-06 -3.34155e-07 0)
(-4.10927e-06 -3.13866e-07 0)
(-3.88096e-06 -2.95121e-07 0)
(-3.66641e-06 -2.77807e-07 0)
(-3.46458e-06 -2.61817e-07 0)
(-3.27449e-06 -2.47046e-07 0)
(-3.09526e-06 -2.33395e-07 0)
(-2.92606e-06 -2.20778e-07 0)
(-2.76614e-06 -2.09116e-07 0)
(-2.61479e-06 -1.98333e-07 0)
(-2.47138e-06 -1.88363e-07 0)
(-2.33531e-06 -1.79142e-07 0)
(-2.20603e-06 -1.70611e-07 0)
(-2.08304e-06 -1.62712e-07 0)
(-1.96587e-06 -1.55398e-07 0)
(-1.85408e-06 -1.48635e-07 0)
(-1.74727e-06 -1.4238e-07 0)
(-1.64508e-06 -1.36595e-07 0)
(-1.54716e-06 -1.31237e-07 0)
(-1.45318e-06 -1.26276e-07 0)
(-1.36285e-06 -1.21685e-07 0)
(-1.27588e-06 -1.17446e-07 0)
(-1.19203e-06 -1.13553e-07 0)
(-1.11104e-06 -1.09975e-07 0)
(-1.03268e-06 -1.06686e-07 0)
(-9.56764e-07 -1.03654e-07 0)
(-8.83076e-07 -1.00861e-07 0)
(-8.11422e-07 -9.831e-08 0)
(-7.41614e-07 -9.59913e-08 0)
(-6.73489e-07 -9.38986e-08 0)
(-6.06881e-07 -9.20243e-08 0)
(-5.41636e-07 -9.03525e-08 0)
(-4.77611e-07 -8.88699e-08 0)
(-4.14664e-07 -8.75603e-08 0)
(-3.5265e-07 -8.64148e-08 0)
(-2.91433e-07 -8.54427e-08 0)
(-2.30878e-07 -8.46456e-08 0)
(-1.70866e-07 -8.4009e-08 0)
(-1.11283e-07 -8.35299e-08 0)
(-5.20024e-08 -8.3222e-08 0)
(7.10989e-09 -8.3088e-08 0)
(6.61728e-08 -8.31122e-08 0)
(1.25294e-07 -8.32763e-08 0)
(1.84587e-07 -8.35757e-08 0)
(2.44183e-07 -8.40276e-08 0)
(3.04215e-07 -8.46571e-08 0)
(3.64802e-07 -8.54673e-08 0)
(4.26051e-07 -8.64413e-08 0)
(4.88082e-07 -8.75692e-08 0)
(5.51038e-07 -8.88616e-08 0)
(6.15074e-07 -9.03389e-08 0)
(6.80343e-07 -9.20139e-08 0)
(7.4698e-07 -9.38878e-08 0)
(8.15117e-07 -9.59613e-08 0)
(8.84907e-07 -9.82417e-08 0)
(9.56519e-07 -1.00744e-07 0)
(1.03014e-06 -1.03484e-07 0)
(1.10595e-06 -1.06472e-07 0)
(1.18416e-06 -1.09719e-07 0)
(1.26495e-06 -1.13237e-07 0)
(1.34854e-06 -1.17043e-07 0)
(1.43518e-06 -1.21165e-07 0)
(1.52511e-06 -1.25631e-07 0)
(1.61861e-06 -1.30464e-07 0)
(1.71594e-06 -1.35682e-07 0)
(1.81739e-06 -1.41307e-07 0)
(1.9233e-06 -1.47369e-07 0)
(2.03406e-06 -1.53903e-07 0)
(2.15002e-06 -1.60949e-07 0)
(2.27159e-06 -1.6855e-07 0)
(2.39923e-06 -1.76757e-07 0)
(2.5334e-06 -1.85625e-07 0)
(2.67461e-06 -1.95197e-07 0)
(2.8234e-06 -2.05512e-07 0)
(2.98038e-06 -2.16634e-07 0)
(3.14625e-06 -2.28656e-07 0)
(3.32173e-06 -2.41679e-07 0)
(3.5076e-06 -2.5578e-07 0)
(3.70465e-06 -2.71015e-07 0)
(3.91378e-06 -2.87468e-07 0)
(4.13598e-06 -3.05263e-07 0)
(4.37231e-06 -3.24519e-07 0)
(4.62395e-06 -3.45349e-07 0)
(4.89214e-06 -3.67889e-07 0)
(5.17825e-06 -3.92306e-07 0)
(5.48377e-06 -4.18758e-07 0)
(5.81022e-06 -4.47368e-07 0)
(6.15928e-06 -4.78259e-07 0)
(6.53273e-06 -5.11599e-07 0)
(6.93251e-06 -5.47573e-07 0)
(7.36069e-06 -5.86364e-07 0)
(7.81946e-06 -6.28155e-07 0)
(8.31114e-06 -6.73135e-07 0)
(8.83819e-06 -7.21482e-07 0)
(9.40315e-06 -7.73339e-07 0)
(1.00086e-05 -8.28809e-07 0)
(1.06573e-05 -8.87979e-07 0)
(1.13519e-05 -9.50924e-07 0)
(1.20954e-05 -1.01769e-06 0)
(1.28905e-05 -1.08824e-06 0)
(1.37398e-05 -1.16244e-06 0)
(1.46458e-05 -1.24007e-06 0)
(1.56109e-05 -1.32081e-06 0)
(1.66372e-05 -1.40424e-06 0)
(1.77262e-05 -1.48977e-06 0)
(1.88789e-05 -1.57661e-06 0)
(2.00956e-05 -1.66376e-06 0)
(2.13758e-05 -1.74995e-06 0)
(2.27179e-05 -1.8337e-06 0)
(2.41191e-05 -1.91323e-06 0)
(2.55749e-05 -1.98644e-06 0)
(2.70792e-05 -2.05084e-06 0)
(2.86241e-05 -2.10365e-06 0)
(3.01991e-05 -2.14165e-06 0)
(3.17913e-05 -2.16131e-06 0)
(3.33852e-05 -2.15873e-06 0)
(3.49622e-05 -2.12969e-06 0)
(3.65003e-05 -2.06966e-06 0)
(3.79745e-05 -1.97396e-06 0)
(3.93563e-05 -1.83779e-06 0)
(4.06136e-05 -1.6564e-06 0)
(4.17113e-05 -1.4253e-06 0)
(4.26115e-05 -1.1404e-06 0)
(4.32736e-05 -7.98388e-07 0)
(4.36555e-05 -3.9696e-07 0)
(4.37143e-05 6.46768e-08 0)
(4.34079e-05 5.85434e-07 0)
(4.26962e-05 1.16174e-06 0)
(4.15439e-05 1.78687e-06 0)
(3.99222e-05 2.4503e-06 0)
(3.78126e-05 3.13667e-06 0)
(3.52102e-05 3.82489e-06 0)
(3.21279e-05 4.48695e-06 0)
(2.86017e-05 5.08664e-06 0)
(2.46951e-05 5.57817e-06 0)
(2.05058e-05 5.90505e-06 0)
(1.61706e-05 5.99964e-06 0)
(1.18695e-05 5.78484e-06 0)
(7.82818e-06 5.18094e-06 0)
(4.31069e-06 4.12499e-06 0)
(1.61995e-06 2.61185e-06 0)
(1.0985e-07 8.10268e-07 0)
(-1.53749e-07 1.70407e-06 0)
(-2.02063e-06 4.73975e-06 0)
(-5.20899e-06 7.11882e-06 0)
(-9.28136e-06 8.74775e-06 0)
(-1.38965e-05 9.67165e-06 0)
(-1.87739e-05 9.99088e-06 0)
(-2.36752e-05 9.8237e-06 0)
(-2.84092e-05 9.28536e-06 0)
(-3.28286e-05 8.47936e-06 0)
(-3.68265e-05 7.49408e-06 0)
(-4.03312e-05 6.40282e-06 0)
(-4.33013e-05 5.26432e-06 0)
(-4.57201e-05 4.12507e-06 0)
(-4.75908e-05 3.02042e-06 0)
(-4.89322e-05 1.9764e-06 0)
(-4.97746e-05 1.01142e-06 0)
(-5.01564e-05 1.37159e-07 0)
(-5.01216e-05 -6.39719e-07 0)
(-4.97167e-05 -1.3169e-06 0)
(-4.89897e-05 -1.8953e-06 0)
(-4.79879e-05 -2.37833e-06 0)
(-4.67569e-05 -2.77139e-06 0)
(-4.53399e-05 -3.0809e-06 0)
(-4.37768e-05 -3.31439e-06 0)
(-4.21042e-05 -3.47959e-06 0)
(-4.03548e-05 -3.58452e-06 0)
(-3.85574e-05 -3.63694e-06 0)
(-3.67374e-05 -3.64443e-06 0)
(-3.49163e-05 -3.61411e-06 0)
(-3.31122e-05 -3.5525e-06 0)
(-3.13402e-05 -3.46561e-06 0)
(-2.96125e-05 -3.35884e-06 0)
(-2.79385e-05 -3.23685e-06 0)
(-2.63256e-05 -3.10391e-06 0)
(-2.47791e-05 -2.96354e-06 0)
(-2.33024e-05 -2.81889e-06 0)
(-2.18976e-05 -2.67233e-06 0)
(-2.05657e-05 -2.52623e-06 0)
(-1.93063e-05 -2.382e-06 0)
(-1.81185e-05 -2.24124e-06 0)
(-1.70005e-05 -2.10483e-06 0)
(-1.59502e-05 -1.9737e-06 0)
(-1.4965e-05 -1.84825e-06 0)
(-1.40421e-05 -1.72892e-06 0)
(-1.31783e-05 -1.61602e-06 0)
(-1.23708e-05 -1.50944e-06 0)
(-1.16163e-05 -1.4092e-06 0)
(-1.09116e-05 -1.31531e-06 0)
(-1.02536e-05 -1.22753e-06 0)
(-9.63933e-06 -1.14559e-06 0)
(-9.0659e-06 -1.06929e-06 0)
(-8.53052e-06 -9.98375e-07 0)
(-8.03049e-06 -9.32524e-07 0)
(-7.56331e-06 -8.71462e-07 0)
(-7.12666e-06 -8.14916e-07 0)
(-6.71829e-06 -7.62572e-07 0)
(-6.3361e-06 -7.14139e-07 0)
(-5.97815e-06 -6.69351e-07 0)
(-5.64264e-06 -6.27957e-07 0)
(-5.32787e-06 -5.89698e-07 0)
(-5.0323e-06 -5.54343e-07 0)
(-4.75446e-06 -5.21678e-07 0)
(-4.49304e-06 -4.91506e-07 0)
(-4.24678e-06 -4.63627e-07 0)
(-4.01453e-06 -4.37861e-07 0)
(-3.79525e-06 -4.14039e-07 0)
(-3.58797e-06 -3.92014e-07 0)
(-3.39177e-06 -3.71641e-07 0)
(-3.20585e-06 -3.52796e-07 0)
(-3.02942e-06 -3.35368e-07 0)
(-2.86178e-06 -3.19249e-07 0)
(-2.70227e-06 -3.04331e-07 0)
(-2.5503e-06 -2.90517e-07 0)
(-2.40531e-06 -2.77728e-07 0)
(-2.26677e-06 -2.65891e-07 0)
(-2.13421e-06 -2.54947e-07 0)
(-2.00717e-06 -2.4482e-07 0)
(-1.88525e-06 -2.35456e-07 0)
(-1.76805e-06 -2.26792e-07 0)
(-1.65522e-06 -2.18794e-07 0)
(-1.54644e-06 -2.11414e-07 0)
(-1.44137e-06 -2.04618e-07 0)
(-1.33972e-06 -1.98373e-07 0)
(-1.24121e-06 -1.92643e-07 0)
(-1.14558e-06 -1.87393e-07 0)
(-1.0526e-06 -1.82593e-07 0)
(-9.6202e-07 -1.78226e-07 0)
(-8.73626e-07 -1.74269e-07 0)
(-7.87208e-07 -1.70705e-07 0)
(-7.02558e-07 -1.67524e-07 0)
(-6.19482e-07 -1.64705e-07 0)
(-5.37794e-07 -1.62228e-07 0)
(-4.5732e-07 -1.60083e-07 0)
(-3.77882e-07 -1.58265e-07 0)
(-2.99304e-07 -1.56768e-07 0)
(-2.21425e-07 -1.55584e-07 0)
(-1.44102e-07 -1.547e-07 0)
(-6.71814e-08 -1.54107e-07 0)
(9.50825e-09 -1.53811e-07 0)
(8.61381e-08 -1.53821e-07 0)
(1.62864e-07 -1.54135e-07 0)
(2.39827e-07 -1.54739e-07 0)
(3.17169e-07 -1.55629e-07 0)
(3.95055e-07 -1.56819e-07 0)
(4.7366e-07 -1.5833e-07 0)
(5.53145e-07 -1.60164e-07 0)
(6.33665e-07 -1.62316e-07 0)
(7.15384e-07 -1.64784e-07 0)
(7.98488e-07 -1.67578e-07 0)
(8.83174e-07 -1.70724e-07 0)
(9.6963e-07 -1.74247e-07 0)
(1.05805e-06 -1.78162e-07 0)
(1.14862e-06 -1.82481e-07 0)
(1.24155e-06 -1.87216e-07 0)
(1.33709e-06 -1.9239e-07 0)
(1.43547e-06 -1.9803e-07 0)
(1.53695e-06 -2.04166e-07 0)
(1.6418e-06 -2.10831e-07 0)
(1.75029e-06 -2.18049e-07 0)
(1.86272e-06 -2.25851e-07 0)
(1.97941e-06 -2.34284e-07 0)
(2.10072e-06 -2.43405e-07 0)
(2.227e-06 -2.5326e-07 0)
(2.35865e-06 -2.63891e-07 0)
(2.49608e-06 -2.75352e-07 0)
(2.63978e-06 -2.87708e-07 0)
(2.79023e-06 -3.01037e-07 0)
(2.94794e-06 -3.15412e-07 0)
(3.11349e-06 -3.30918e-07 0)
(3.2875e-06 -3.47661e-07 0)
(3.47065e-06 -3.65752e-07 0)
(3.66365e-06 -3.85285e-07 0)
(3.86726e-06 -4.06356e-07 0)
(4.08233e-06 -4.29089e-07 0)
(4.3098e-06 -4.53646e-07 0)
(4.55068e-06 -4.80212e-07 0)
(4.80605e-06 -5.08956e-07 0)
(5.07704e-06 -5.40044e-07 0)
(5.36491e-06 -5.73672e-07 0)
(5.67105e-06 -6.10048e-07 0)
(5.99695e-06 -6.49383e-07 0)
(6.34417e-06 -6.91904e-07 0)
(6.71444e-06 -7.37874e-07 0)
(7.10966e-06 -7.87594e-07 0)
(7.53183e-06 -8.41373e-07 0)
(7.98311e-06 -8.99502e-07 0)
(8.46576e-06 -9.62277e-07 0)
(8.98225e-06 -1.03e-06 0)
(9.53517e-06 -1.10299e-06 0)
(1.01273e-05 -1.18155e-06 0)
(1.07615e-05 -1.26598e-06 0)
(1.14409e-05 -1.35657e-06 0)
(1.21687e-05 -1.45364e-06 0)
(1.29482e-05 -1.55742e-06 0)
(1.37828e-05 -1.66805e-06 0)
(1.46758e-05 -1.78563e-06 0)
(1.56308e-05 -1.91016e-06 0)
(1.66511e-05 -2.04157e-06 0)
(1.774e-05 -2.1796e-06 0)
(1.89006e-05 -2.32384e-06 0)
(2.01355e-05 -2.4736e-06 0)
(2.14471e-05 -2.62798e-06 0)
(2.28372e-05 -2.78583e-06 0)
(2.43066e-05 -2.94562e-06 0)
(2.58556e-05 -3.10544e-06 0)
(2.74829e-05 -3.26293e-06 0)
(2.91861e-05 -3.4152e-06 0)
(3.09612e-05 -3.55888e-06 0)
(3.28021e-05 -3.69e-06 0)
(3.47006e-05 -3.80395e-06 0)
(3.66458e-05 -3.89547e-06 0)
(3.86242e-05 -3.95864e-06 0)
(4.0619e-05 -3.98687e-06 0)
(4.26099e-05 -3.97297e-06 0)
(4.4573e-05 -3.90919e-06 0)
(4.64803e-05 -3.78731e-06 0)
(4.82999e-05 -3.59884e-06 0)
(4.99956e-05 -3.33517e-06 0)
(5.15274e-05 -2.98786e-06 0)
(5.28513e-05 -2.54901e-06 0)
(5.39202e-05 -2.01167e-06 0)
(5.46841e-05 -1.37033e-06 0)
(5.50916e-05 -6.21554e-07 0)
(5.50907e-05 2.35268e-07 0)
(5.46309e-05 1.19712e-06 0)
(5.36651e-05 2.25632e-06 0)
(5.21524e-05 3.39943e-06 0)
(5.00607e-05 4.60596e-06 0)
(4.73711e-05 5.84692e-06 0)
(4.40818e-05 7.08321e-06 0)
(4.02127e-05 8.26387e-06 0)
(3.5811e-05 9.32433e-06 0)
(3.09569e-05 1.01848e-05 0)
(2.57687e-05 1.07493e-05 0)
(2.04086e-05 1.09059e-05 0)
(1.50859e-05 1.05308e-05 0)
(1.00604e-05 9.49825e-06 0)
(5.63612e-06 7.70377e-06 0)
(2.18064e-06 5.10577e-06 0)
(1.64374e-07 1.81801e-06 0)
(-1.82551e-07 2.86779e-06 0)
(-2.36891e-06 7.54948e-06 0)
(-6.06234e-06 1.10761e-05 0)
(-1.07392e-05 1.34587e-05 0)
(-1.60088e-05 1.48073e-05 0)
(-2.1562e-05 1.52757e-05 0)
(-2.71393e-05 1.50317e-05 0)
(-3.25328e-05 1.42376e-05 0)
(-3.75811e-05 1.30405e-05 0)
(-4.2165e-05 1.15682e-05 0)
(-4.62031e-05 9.92801e-06 0)
(-4.96463e-05 8.20797e-06 0)
(-5.24726e-05 6.47819e-06 0)
(-5.46823e-05 4.7932e-06 0)
(-5.62932e-05 3.19378e-06 0)
(-5.73366e-05 1.70904e-06 0)
(-5.78535e-05 3.58388e-07 0)
(-5.78912e-05 -8.46865e-07 0)
(-5.75012e-05 -1.90198e-06 0)
(-5.67366e-05 -2.80735e-06 0)
(-5.56503e-05 -3.56727e-06 0)
(-5.42938e-05 -4.18932e-06 0)
(-5.2716e-05 -4.68281e-06 0)
(-5.09627e-05 -5.05874e-06 0)
(-4.90756e-05 -5.32872e-06 0)
(-4.70926e-05 -5.50475e-06 0)
(-4.50473e-05 -5.59866e-06 0)
(-4.29691e-05 -5.622e-06 0)
(-4.08834e-05 -5.58559e-06 0)
(-3.88116e-05 -5.49957e-06 0)
(-3.67717e-05 -5.37325e-06 0)
(-3.47782e-05 -5.21489e-06 0)
(-3.28427e-05 -5.03198e-06 0)
(-3.09744e-05 -4.83097e-06 0)
(-2.91796e-05 -4.61755e-06 0)
(-2.74631e-05 -4.39648e-06 0)
(-2.58276e-05 -4.17188e-06 0)
(-2.42745e-05 -3.94711e-06 0)
(-2.2804e-05 -3.7248e-06 0)
(-2.14152e-05 -3.5073e-06 0)
(-2.01064e-05 -3.29614e-06 0)
(-1.88754e-05 -3.09269e-06 0)
(-1.77195e-05 -2.89785e-06 0)
(-1.66355e-05 -2.71222e-06 0)
(-1.56201e-05 -2.53626e-06 0)
(-1.46697e-05 -2.37008e-06 0)
(-1.37809e-05 -2.21366e-06 0)
(-1.29502e-05 -2.06689e-06 0)
(-1.21739e-05 -1.92953e-06 0)
(-1.14487e-05 -1.80129e-06 0)
(-1.07712e-05 -1.68179e-06 0)
(-1.01382e-05 -1.5706e-06 0)
(-9.54661e-06 -1.46728e-06 0)
(-8.99362e-06 -1.37143e-06 0)
(-8.47647e-06 -1.28259e-06 0)
(-7.99254e-06 -1.20031e-06 0)
(-7.53942e-06 -1.12416e-06 0)
(-7.11486e-06 -1.0537e-06 0)
(-6.71673e-06 -9.88556e-07 0)
(-6.34307e-06 -9.28322e-07 0)
(-5.99206e-06 -8.72643e-07 0)
(-5.66201e-06 -8.21185e-07 0)
(-5.35135e-06 -7.73627e-07 0)
(-5.05863e-06 -7.29668e-07 0)
(-4.78248e-06 -6.89031e-07 0)
(-4.52168e-06 -6.51458e-07 0)
(-4.27509e-06 -6.1671e-07 0)
(-4.04163e-06 -5.84566e-07 0)
(-3.82036e-06 -5.54827e-07 0)
(-3.61035e-06 -5.27311e-07 0)
(-3.41077e-06 -5.01852e-07 0)
(-3.22084e-06 -4.78288e-07 0)
(-3.03985e-06 -4.56477e-07 0)
(-2.86714e-06 -4.36278e-07 0)
(-2.70211e-06 -4.17581e-07 0)
(-2.54417e-06 -4.00279e-07 0)
(-2.39281e-06 -3.8427e-07 0)
(-2.24752e-06 -3.69468e-07 0)
(-2.10785e-06 -3.55788e-07 0)
(-1.97338e-06 -3.43167e-07 0)
(-1.8437e-06 -3.31516e-07 0)
(-1.71845e-06 -3.20772e-07 0)
(-1.59728e-06 -3.10888e-07 0)
(-1.47984e-06 -3.01813e-07 0)
(-1.36583e-06 -2.93509e-07 0)
(-1.25496e-06 -2.85928e-07 0)
(-1.14696e-06 -2.79035e-07 0)
(-1.04155e-06 -2.72795e-07 0)
(-9.38489e-07 -2.67173e-07 0)
(-8.37541e-07 -2.62139e-07 0)
(-7.38464e-07 -2.57673e-07 0)
(-6.41041e-07 -2.53755e-07 0)
(-5.45066e-07 -2.50367e-07 0)
(-4.50328e-07 -2.47491e-07 0)
(-3.56617e-07 -2.4512e-07 0)
(-2.63736e-07 -2.43253e-07 0)
(-1.71502e-07 -2.41874e-07 0)
(-7.97361e-08 -2.40961e-07 0)
(1.17464e-08 -2.40501e-07 0)
(1.0314e-07 -2.40502e-07 0)
(1.94643e-07 -2.40978e-07 0)
(2.86442e-07 -2.41935e-07 0)
(3.78704e-07 -2.43365e-07 0)
(4.71612e-07 -2.45262e-07 0)
(5.65361e-07 -2.47638e-07 0)
(6.60155e-07 -2.50514e-07 0)
(7.56194e-07 -2.53907e-07 0)
(8.53677e-07 -2.5782e-07 0)
(9.52813e-07 -2.62261e-07 0)
(1.05382e-06 -2.6725e-07 0)
(1.15692e-06 -2.72819e-07 0)
(1.26236e-06 -2.79e-07 0)
(1.37037e-06 -2.85821e-07 0)
(1.48121e-06 -2.93306e-07 0)
(1.59514e-06 -3.01484e-07 0)
(1.71246e-06 -3.10391e-07 0)
(1.83345e-06 -3.20078e-07 0)
(1.95846e-06 -3.30601e-07 0)
(2.0878e-06 -3.42009e-07 0)
(2.22185e-06 -3.54352e-07 0)
(2.36096e-06 -3.67693e-07 0)
(2.50555e-06 -3.82107e-07 0)
(2.65607e-06 -3.97672e-07 0)
(2.81297e-06 -4.14465e-07 0)
(2.97676e-06 -4.32574e-07 0)
(3.14798e-06 -4.52105e-07 0)
(3.32723e-06 -4.73176e-07 0)
(3.51512e-06 -4.95906e-07 0)
(3.71232e-06 -5.20415e-07 0)
(3.91954e-06 -5.46849e-07 0)
(4.1376e-06 -5.75383e-07 0)
(4.36736e-06 -6.06199e-07 0)
(4.60974e-06 -6.3948e-07 0)
(4.86572e-06 -6.75413e-07 0)
(5.13639e-06 -7.14205e-07 0)
(5.42292e-06 -7.56112e-07 0)
(5.72658e-06 -8.01421e-07 0)
(6.04874e-06 -8.50413e-07 0)
(6.39087e-06 -9.03388e-07 0)
(6.7546e-06 -9.60681e-07 0)
(7.14168e-06 -1.02265e-06 0)
(7.55397e-06 -1.08967e-06 0)
(7.99347e-06 -1.16209e-06 0)
(8.46234e-06 -1.24035e-06 0)
(8.96293e-06 -1.3249e-06 0)
(9.49776e-06 -1.41622e-06 0)
(1.00695e-05 -1.51478e-06 0)
(1.06809e-05 -1.62106e-06 0)
(1.13352e-05 -1.73557e-06 0)
(1.20354e-05 -1.85877e-06 0)
(1.27849e-05 -1.99111e-06 0)
(1.35873e-05 -2.13302e-06 0)
(1.44461e-05 -2.28489e-06 0)
(1.53652e-05 -2.44709e-06 0)
(1.63483e-05 -2.61983e-06 0)
(1.73995e-05 -2.80325e-06 0)
(1.85226e-05 -2.99728e-06 0)
(1.97212e-05 -3.20172e-06 0)
(2.09991e-05 -3.41613e-06 0)
(2.23596e-05 -3.63982e-06 0)
(2.38056e-05 -3.87171e-06 0)
(2.53395e-05 -4.11031e-06 0)
(2.69629e-05 -4.35372e-06 0)
(2.86768e-05 -4.59947e-06 0)
(3.04806e-05 -4.84449e-06 0)
(3.23728e-05 -5.08506e-06 0)
(3.435e-05 -5.31662e-06 0)
(3.64069e-05 -5.53382e-06 0)
(3.85359e-05 -5.73042e-06 0)
(4.07271e-05 -5.8992e-06 0)
(4.29672e-05 -6.03197e-06 0)
(4.524e-05 -6.11954e-06 0)
(4.75254e-05 -6.15173e-06 0)
(4.97996e-05 -6.11745e-06 0)
(5.20343e-05 -6.00483e-06 0)
(5.41971e-05 -5.80133e-06 0)
(5.62507e-05 -5.49407e-06 0)
(5.81536e-05 -5.07013e-06 0)
(5.98596e-05 -4.51694e-06 0)
(6.13186e-05 -3.82288e-06 0)
(6.24771e-05 -2.97792e-06 0)
(6.32788e-05 -1.97443e-06 0)
(6.36662e-05 -8.08105e-07 0)
(6.35815e-05 5.20897e-07 0)
(6.29694e-05 2.00669e-06 0)
(6.17787e-05 3.6362e-06 0)
(5.99659e-05 5.38748e-06 0)
(5.74981e-05 7.22794e-06 0)
(5.43575e-05 9.11229e-06 0)
(5.05454e-05 1.09804e-05 0)
(4.60879e-05 1.27552e-05 0)
(4.10405e-05 1.43404e-05 0)
(3.5494e-05 1.56189e-05 0)
(2.95803e-05 1.64522e-05 0)
(2.34769e-05 1.66814e-05 0)
(1.74114e-05 1.61322e-05 0)
(1.16664e-05 1.46263e-05 0)
(6.57705e-06 1.20024e-05 0)