/*--------------------------------*- C++ -*----------------------------------*\
| =========                 |                                                 |
| \\      /  F ield         | OpenFOAM: The Open Source CFD Toolbox           |
|  \\    /   O peration     | Version:  2412                                  |
|   \\  /    A nd           | Website:  www.openfoam.com                      |
|    \\/     M anipulation  |                                                 |
\*---------------------------------------------------------------------------*/
FoamFile
{
    version     2.0;
    format      ascii;
    arch        "LSB;label=32;scalar=64";
    class       volScalarField;
    location    "700";
    object      p;
}
// * * * * * * * * * * * * * * * * * * * * * * * * * * * * * * * * * * * * * //

dimensions      [0 2 -2 0 0 0 0];

internalField   nonuniform List<scalar> 
900
(
0
-5.38284e-06
-6.80101e-06
-1.83864e-06
9.56468e-06
2.66284e-05
4.79672e-05
7.19264e-05
9.67418e-05
0.000120653
0.000142006
0.000159329
0.000171402
0.000177311
0.000176479
0.000168699
0.00015414
0.000133352
0.00010724
7.70327e-05
4.4235e-05
1.05642e-05
-2.21279e-05
-5.19414e-05
-7.70278e-05
-9.57376e-05
-0.000106828
-0.000109849
-0.000105641
-9.71069e-05
-0.00139122
-0.00139759
-0.00139889
-0.00139433
-0.00138439
-0.00136979
-0.00135167
-0.00133142
-0.00131052
-0.00129043
-0.00127257
-0.00125819
-0.00124834
-0.00124378
-0.00124501
-0.00125221
-0.00126521
-0.00128354
-0.00130642
-0.00133276
-0.00136129
-0.00139054
-0.00141891
-0.00144484
-0.00146677
-0.00148335
-0.00149355
-0.00149692
-0.00149349
-0.00148448
-0.00418223
-0.00419023
-0.00419243
-0.00418884
-0.00418046
-0.00416802
-0.0041526
-0.00413538
-0.00411763
-0.00410062
-0.00408556
-0.00407352
-0.00406541
-0.0040619
-0.0040634
-0.00407006
-0.00408174
-0.00409801
-0.00411819
-0.00414135
-0.00416636
-0.00419194
-0.00421674
-0.00423939
-0.00425856
-0.00427307
-0.00428194
-0.00428459
-0.00428024
-0.004269
-0.00836789
-0.00837745
-0.00838083
-0.00837843
-0.00837156
-0.00836102
-0.00834783
-0.00833306
-0.00831784
-0.00830328
-0.00829044
-0.00828026
-0.00827352
-0.00827079
-0.00827244
-0.0082786
-0.00828913
-0.00830367
-0.00832159
-0.00834209
-0.00836417
-0.00838672
-0.00840855
-0.00842844
-0.0084452
-0.00845774
-0.00846507
-0.00846648
-0.00846064
-0.00844713
-0.0139389
-0.0139493
-0.0139536
-0.0139523
-0.0139468
-0.0139379
-0.0139267
-0.0139141
-0.013901
-0.0138886
-0.0138776
-0.013869
-0.0138634
-0.0138613
-0.013863
-0.0138687
-0.0138781
-0.0138911
-0.013907
-0.0139251
-0.0139446
-0.0139645
-0.0139836
-0.014001
-0.0140156
-0.0140263
-0.0140321
-0.0140323
-0.0140252
-0.0140102
-0.0208818
-0.0208925
-0.0208973
-0.0208968
-0.0208925
-0.0208852
-0.0208757
-0.0208649
-0.0208537
-0.0208431
-0.0208337
-0.0208264
-0.0208218
-0.0208202
-0.0208219
-0.0208271
-0.0208356
-0.0208471
-0.0208612
-0.0208771
-0.0208943
-0.0209117
-0.0209285
-0.0209436
-0.0209561
-0.0209651
-0.0209696
-0.0209687
-0.0209608
-0.0209452
-0.0291799
-0.0291902
-0.0291952
-0.0291954
-0.0291921
-0.029186
-0.029178
-0.0291688
-0.0291594
-0.0291503
-0.0291424
-0.0291363
-0.0291325
-0.0291313
-0.029133
-0.0291376
-0.0291452
-0.0291553
-0.0291677
-0.0291816
-0.0291966
-0.0292118
-0.0292263
-0.0292393
-0.02925
-0.0292575
-0.0292608
-0.0292592
-0.029251
-0.0292356
-0.0388132
-0.0388228
-0.0388277
-0.0388282
-0.0388257
-0.0388208
-0.0388141
-0.0388065
-0.0387985
-0.038791
-0.0387843
-0.0387793
-0.0387761
-0.0387753
-0.0387769
-0.038781
-0.0387876
-0.0387965
-0.0388072
-0.0388193
-0.0388321
-0.0388452
-0.0388576
-0.0388687
-0.0388777
-0.0388838
-0.0388862
-0.0388841
-0.0388761
-0.0388616
-0.0497594
-0.049768
-0.0497724
-0.0497732
-0.0497713
-0.0497673
-0.0497619
-0.0497556
-0.0497491
-0.0497428
-0.0497374
-0.0497333
-0.0497308
-0.0497302
-0.0497317
-0.0497353
-0.049741
-0.0497485
-0.0497576
-0.0497679
-0.0497788
-0.0497898
-0.0498003
-0.0498096
-0.049817
-0.0498219
-0.0498235
-0.0498212
-0.0498138
-0.0498006
-0.0619934
-0.0620007
-0.0620046
-0.0620054
-0.0620041
-0.062001
-0.0619966
-0.0619916
-0.0619864
-0.0619814
-0.0619771
-0.0619738
-0.0619719
-0.0619715
-0.0619728
-0.0619759
-0.0619807
-0.061987
-0.0619945
-0.062003
-0.062012
-0.062021
-0.0620296
-0.0620372
-0.0620432
-0.062047
-0.062048
-0.0620458
-0.0620392
-0.0620277
-0.0754883
-0.0754942
-0.0754974
-0.0754982
-0.0754972
-0.0754949
-0.0754916
-0.0754877
-0.0754837
-0.0754799
-0.0754766
-0.0754741
-0.0754727
-0.0754726
-0.0754737
-0.0754763
-0.0754801
-0.0754852
-0.0754912
-0.0754979
-0.075505
-0.0755122
-0.0755189
-0.0755248
-0.0755295
-0.0755323
-0.075533
-0.075531
-0.0755254
-0.075516
-0.0902152
-0.0902196
-0.0902221
-0.0902227
-0.0902221
-0.0902205
-0.0902181
-0.0902154
-0.0902125
-0.0902098
-0.0902075
-0.0902058
-0.0902048
-0.0902048
-0.0902058
-0.0902078
-0.0902107
-0.0902145
-0.090219
-0.090224
-0.0902293
-0.0902346
-0.0902396
-0.0902439
-0.0902473
-0.0902493
-0.0902497
-0.090248
-0.0902437
-0.0902364
-0.106144
-0.106147
-0.106148
-0.106149
-0.106148
-0.106148
-0.106146
-0.106144
-0.106143
-0.106141
-0.10614
-0.106139
-0.106138
-0.106138
-0.106139
-0.10614
-0.106142
-0.106145
-0.106148
-0.106151
-0.106155
-0.106158
-0.106162
-0.106164
-0.106167
-0.106168
-0.106168
-0.106167
-0.106164
-0.106159
-0.123243
-0.123244
-0.123245
-0.123245
-0.123245
-0.123245
-0.123244
-0.123243
-0.123243
-0.123242
-0.123241
-0.123241
-0.123241
-0.123241
-0.123242
-0.123243
-0.123244
-0.123245
-0.123247
-0.123248
-0.12325
-0.123252
-0.123254
-0.123255
-0.123256
-0.123256
-0.123256
-0.123256
-0.123254
-0.123251
-0.14148
-0.14148
-0.14148
-0.14148
-0.14148
-0.14148
-0.14148
-0.14148
-0.141481
-0.141481
-0.141481
-0.141481
-0.141482
-0.141482
-0.141482
-0.141482
-0.141483
-0.141483
-0.141483
-0.141483
-0.141483
-0.141483
-0.141483
-0.141483
-0.141483
-0.141483
-0.141483
-0.141483
-0.141483
-0.141482
-0.160822
-0.16082
-0.160819
-0.160819
-0.16082
-0.16082
-0.160821
-0.160822
-0.160824
-0.160825
-0.160826
-0.160827
-0.160827
-0.160828
-0.160828
-0.160827
-0.160827
-0.160826
-0.160824
-0.160823
-0.160821
-0.16082
-0.160818
-0.160817
-0.160816
-0.160815
-0.160815
-0.160815
-0.160816
-0.160818
-0.181236
-0.181233
-0.181232
-0.181231
-0.181232
-0.181233
-0.181235
-0.181237
-0.181239
-0.181241
-0.181243
-0.181244
-0.181245
-0.181246
-0.181245
-0.181244
-0.181243
-0.181241
-0.181238
-0.181235
-0.181232
-0.181229
-0.181226
-0.181223
-0.181221
-0.18122
-0.181219
-0.18122
-0.181223
-0.181227
-0.202691
-0.202686
-0.202684
-0.202683
-0.202684
-0.202686
-0.202688
-0.202691
-0.202694
-0.202697
-0.2027
-0.202702
-0.202703
-0.202703
-0.202703
-0.202701
-0.202699
-0.202696
-0.202692
-0.202687
-0.202683
-0.202678
-0.202673
-0.202669
-0.202666
-0.202664
-0.202664
-0.202665
-0.202669
-0.202675
-0.225153
-0.225147
-0.225144
-0.225143
-0.225144
-0.225147
-0.22515
-0.225153
-0.225157
-0.225161
-0.225164
-0.225167
-0.225168
-0.225169
-0.225168
-0.225166
-0.225163
-0.225158
-0.225153
-0.225147
-0.225141
-0.225135
-0.225129
-0.225123
-0.225119
-0.225117
-0.225116
-0.225118
-0.225123
-0.225131
-0.248591
-0.248584
-0.248581
-0.24858
-0.248581
-0.248584
-0.248588
-0.248592
-0.248597
-0.248602
-0.248605
-0.248609
-0.24861
-0.248611
-0.24861
-0.248607
-0.248603
-0.248598
-0.248592
-0.248584
-0.248577
-0.248569
-0.248561
-0.248555
-0.248549
-0.248546
-0.248545
-0.248547
-0.248553
-0.248564
-0.272976
-0.272969
-0.272965
-0.272964
-0.272965
-0.272969
-0.272973
-0.272979
-0.272984
-0.272989
-0.272994
-0.272998
-0.273
-0.273
-0.272999
-0.272996
-0.272991
-0.272985
-0.272977
-0.272969
-0.272959
-0.27295
-0.272941
-0.272933
-0.272927
-0.272923
-0.272922
-0.272924
-0.272931
-0.272942
-0.29828
-0.298271
-0.298267
-0.298266
-0.298268
-0.298272
-0.298277
-0.298284
-0.29829
-0.298296
-0.298302
-0.298306
-0.298308
-0.298309
-0.298307
-0.298304
-0.298298
-0.298291
-0.298282
-0.298272
-0.298261
-0.29825
-0.29824
-0.298231
-0.298223
-0.298218
-0.298217
-0.298219
-0.298226
-0.298239
-0.324475
-0.324466
-0.324461
-0.324461
-0.324463
-0.324468
-0.324474
-0.324481
-0.324489
-0.324496
-0.324502
-0.324507
-0.324509
-0.32451
-0.324508
-0.324504
-0.324498
-0.32449
-0.32448
-0.324468
-0.324456
-0.324443
-0.324431
-0.324421
-0.324412
-0.324406
-0.324404
-0.324406
-0.324414
-0.324428
-0.351538
-0.351528
-0.351524
-0.351523
-0.351526
-0.351532
-0.351539
-0.351547
-0.351556
-0.351564
-0.351571
-0.351576
-0.35158
-0.351581
-0.351579
-0.351574
-0.351567
-0.351558
-0.351546
-0.351533
-0.35152
-0.351505
-0.351492
-0.35148
-0.35147
-0.351463
-0.351459
-0.351461
-0.351469
-0.351483
-0.379446
-0.379436
-0.379432
-0.379432
-0.379436
-0.379443
-0.379451
-0.379461
-0.37947
-0.37948
-0.379488
-0.379494
-0.379497
-0.379499
-0.379497
-0.379492
-0.379484
-0.379473
-0.379461
-0.379446
-0.37943
-0.379415
-0.379399
-0.379385
-0.379374
-0.379365
-0.379361
-0.379362
-0.37937
-0.379384
-0.40818
-0.408171
-0.408167
-0.408168
-0.408173
-0.408181
-0.408191
-0.408202
-0.408213
-0.408223
-0.408232
-0.40824
-0.408244
-0.408245
-0.408243
-0.408238
-0.408229
-0.408218
-0.408203
-0.408187
-0.40817
-0.408152
-0.408134
-0.408119
-0.408105
-0.408096
-0.40809
-0.40809
-0.408097
-0.408111
-0.437725
-0.437716
-0.437713
-0.437715
-0.437721
-0.43773
-0.437741
-0.437754
-0.437767
-0.437779
-0.43779
-0.437798
-0.437803
-0.437805
-0.437803
-0.437798
-0.437788
-0.437775
-0.437759
-0.437741
-0.437721
-0.437701
-0.437681
-0.437664
-0.437648
-0.437637
-0.43763
-0.437629
-0.437635
-0.437647
-0.468066
-0.468058
-0.468057
-0.46806
-0.468067
-0.468077
-0.468091
-0.468105
-0.46812
-0.468134
-0.468147
-0.468157
-0.468163
-0.468165
-0.468163
-0.468157
-0.468147
-0.468132
-0.468114
-0.468094
-0.468072
-0.468049
-0.468027
-0.468007
-0.46799
-0.467977
-0.467969
-0.467966
-0.46797
-0.46798
-0.499194
-0.499188
-0.499187
-0.499191
-0.4992
-0.499212
-0.499228
-0.499245
-0.499262
-0.499279
-0.499294
-0.499305
-0.499313
-0.499316
-0.499315
-0.499308
-0.499296
-0.49928
-0.49926
-0.499237
-0.499212
-0.499186
-0.499161
-0.499138
-0.499118
-0.499103
-0.499094
-0.499091
-0.499094
-0.499102
-0.531107
-0.531102
-0.5311
-0.531104
-0.531114
-0.531129
-0.531147
-0.531168
-0.531188
-0.531208
-0.531226
-0.53124
-0.53125
-0.531254
-0.531253
-0.531246
-0.531233
-0.531214
-0.531191
-0.531165
-0.531136
-0.531106
-0.531077
-0.531051
-0.531028
-0.531011
-0.531001
-0.530999
-0.531002
-0.531011
)
;

boundaryField
{
    floor
    {
        type            calculated;
        value           nonuniform List<scalar> 
30
(
0.000349736
0.000344591
0.000343386
0.000348559
0.00036017
0.000377439
0.000398979
0.000423132
0.00044813
0.000472209
0.000493706
0.000511145
0.000523302
0.000529258
0.000528436
0.000520625
0.000505998
0.000485104
0.000458853
0.00042848
0.000395493
0.000361617
0.000328709
0.000298674
0.000273362
0.000254428
0.000243116
0.000239876
0.000243869
0.000252192
)
;
    }
    ceiling
    {
        type            calculated;
        value           nonuniform List<scalar> 
30
(
-0.547267
-0.547262
-0.54726
-0.547265
-0.547275
-0.54729
-0.547308
-0.547329
-0.54735
-0.54737
-0.547388
-0.547402
-0.547412
-0.547416
-0.547415
-0.547407
-0.547394
-0.547376
-0.547353
-0.547326
-0.547297
-0.547267
-0.547238
-0.547211
-0.547189
-0.547172
-0.547161
-0.547158
-0.547162
-0.54717
)
;
    }
    fixedWalls
    {
        type            calculated;
        value           nonuniform List<scalar> 
60
(
0
-0.00139122
-0.00418223
-0.00836789
-0.0139389
-0.0208818
-0.0291799
-0.0388132
-0.0497594
-0.0619934
-0.0754883
-0.0902152
-0.106144
-0.123243
-0.14148
-0.160822
-0.181236
-0.202691
-0.225153
-0.248591
-0.272976
-0.29828
-0.324475
-0.351538
-0.379446
-0.40818
-0.437725
-0.468066
-0.499194
-0.531107
-9.71069e-05
-0.00148448
-0.004269
-0.00844713
-0.0140102
-0.0209452
-0.0292356
-0.0388616
-0.0498006
-0.0620277
-0.075516
-0.0902364
-0.106159
-0.123251
-0.141482
-0.160818
-0.181227
-0.202675
-0.225131
-0.248564
-0.272942
-0.298239
-0.324428
-0.351483
-0.379384
-0.408111
-0.437647
-0.46798
-0.499102
-0.531011
)
;
    }
    frontAndBack
    {
        type            empty;
    }
}


// ************************************************************************* //
