/*--------------------------------*- C++ -*----------------------------------*\
| =========                 |                                                 |
| \\      /  F ield         | OpenFOAM: The Open Source CFD Toolbox           |
|  \\    /   O peration     | Version:  2412                                  |
|   \\  /    A nd           | Website:  www.openfoam.com                      |
|    \\/     M anipulation  |                                                 |
\*---------------------------------------------------------------------------*/
FoamFile
{
    version     2.0;
    format      ascii;
    arch        "LSB;label=32;scalar=64";
    class       volScalarField;
    location    "700";
    object      p_rgh;
}
// * * * * * * * * * * * * * * * * * * * * * * * * * * * * * * * * * * * * * //

dimensions      [0 2 -2 0 0 0 0];

internalField   nonuniform List<scalar> 
900
(
0.000349736
0.000344591
0.000343386
0.000348559
0.00036017
0.000377439
0.000398979
0.000423132
0.00044813
0.000472209
0.000493706
0.000511145
0.000523302
0.000529258
0.000528436
0.000520625
0.000505998
0.000485104
0.000458853
0.00042848
0.000395493
0.000361617
0.000328709
0.000298674
0.000273362
0.000254428
0.000243116
0.000239876
0.000243869
0.000252192
0.00175325
0.00174895
0.00174955
0.00175599
0.00176779
0.00178424
0.00180417
0.00182616
0.00184871
0.0018703
0.00188946
0.00190488
0.00191549
0.00192048
0.00191933
0.00191186
0.00189824
0.00187896
0.00185484
0.00182699
0.00179675
0.00176566
0.00173534
0.00170742
0.00168346
0.00166487
0.00165267
0.00164734
0.00164884
0.00165595
0.00453796
0.00453555
0.00453855
0.00454729
0.00456082
0.00457837
0.00459881
0.00462088
0.00464321
0.00466439
0.00468306
0.004698
0.0047082
0.0047129
0.00471163
0.00470422
0.00469081
0.0046719
0.00464825
0.00462092
0.00459117
0.00456045
0.00453023
0.00450202
0.00447723
0.00445714
0.00444277
0.00443473
0.00443376
0.00443968
0.00868198
0.00868308
0.00868969
0.00870206
0.00871892
0.00873941
0.0087624
0.00878664
0.00881081
0.00883351
0.0088534
0.00886926
0.00888009
0.00888514
0.00888393
0.00887629
0.00886239
0.0088427
0.00881799
0.00878933
0.00875796
0.00872534
0.00869292
0.00866214
0.00863441
0.00861098
0.00859296
0.00858109
0.00857662
0.00857979
0.0141547
0.0141614
0.0141733
0.0141908
0.0142125
0.0142377
0.014265
0.0142931
0.0143209
0.0143467
0.0143692
0.0143871
0.0143994
0.0144053
0.0144043
0.0143962
0.0143812
0.0143598
0.0143328
0.0143012
0.0142665
0.01423
0.0141935
0.0141582
0.0141256
0.0140971
0.0140738
0.0140566
0.0140469
0.0140451
0.0209172
0.0209315
0.0209503
0.0209744
0.0210026
0.0210339
0.0210671
0.0211008
0.0211336
0.0211639
0.0211903
0.0212113
0.0212258
0.021233
0.0212323
0.0212235
0.0212069
0.0211828
0.0211523
0.0211165
0.0210769
0.021035
0.0209925
0.0209509
0.0209118
0.0208766
0.0208465
0.0208224
0.0208057
0.0207966
0.0289231
0.0289466
0.0289737
0.0290058
0.0290417
0.0290805
0.0291209
0.0291614
0.0292006
0.0292365
0.0292677
0.0292926
0.02931
0.0293188
0.0293185
0.0293089
0.0292901
0.0292628
0.0292279
0.0291868
0.0291409
0.0290921
0.0290422
0.0289928
0.0289457
0.0289023
0.028864
0.0288315
0.0288061
0.0287878
0.0381185
0.0381526
0.0381891
0.0382303
0.038275
0.0383224
0.0383711
0.0384195
0.0384659
0.0385084
0.0385452
0.0385746
0.0385952
0.0386059
0.0386061
0.0385955
0.0385743
0.0385432
0.0385032
0.0384558
0.0384027
0.0383459
0.0382874
0.0382291
0.0381727
0.03812
0.0380721
0.03803
0.0379946
0.0379655
0.0484434
0.048489
0.0485359
0.0485869
0.0486413
0.0486981
0.0487558
0.0488128
0.0488671
0.0489168
0.0489597
0.048994
0.0490182
0.049031
0.0490317
0.04902
0.0489961
0.0489608
0.0489152
0.048861
0.0488
0.0487345
0.0486665
0.0485983
0.0485318
0.0484688
0.0484105
0.0483577
0.0483112
0.0482702
0.0598326
0.0598903
0.0599482
0.0600096
0.0600741
0.0601407
0.0602079
0.0602739
0.0603366
0.0603937
0.060443
0.0604824
0.0605103
0.0605252
0.0605265
0.0605136
0.060487
0.0604473
0.0603959
0.0603345
0.0602652
0.0601905
0.0601127
0.0600341
0.0599569
0.059883
0.0598136
0.0597496
0.0596912
0.0596373
0.0722169
0.0722871
0.0723561
0.0724282
0.072503
0.0725796
0.0726564
0.0727314
0.0728025
0.0728671
0.0729227
0.0729673
0.0729988
0.0730159
0.0730177
0.0730037
0.0729743
0.0729303
0.072873
0.0728045
0.0727269
0.0726429
0.0725551
0.072466
0.0723779
0.0722929
0.0722122
0.0721365
0.0720659
0.0719986
0.0855247
0.0856073
0.0856874
0.08577
0.085855
0.0859413
0.0860275
0.0861114
0.0861906
0.0862624
0.0863242
0.0863736
0.0864087
0.0864279
0.0864302
0.0864151
0.0863831
0.0863349
0.086272
0.0861966
0.086111
0.0860181
0.0859205
0.0858211
0.0857223
0.0856262
0.0855343
0.085447
0.0853639
0.0852832
0.099683
0.0997776
0.0998685
0.0999613
0.100056
0.100152
0.100247
0.100339
0.100425
0.100504
0.100571
0.100625
0.100664
0.100685
0.100688
0.100672
0.100637
0.100585
0.100517
0.100435
0.100342
0.100241
0.100134
0.100025
0.0999163
0.0998097
0.0997069
0.0996082
0.0995131
0.0994191
0.114619
0.114725
0.114826
0.114928
0.115032
0.115136
0.115239
0.115339
0.115432
0.115516
0.115589
0.115647
0.115688
0.115711
0.115714
0.115697
0.115661
0.115605
0.115533
0.115446
0.115346
0.115237
0.115123
0.115005
0.114886
0.11477
0.114657
0.114548
0.114441
0.114335
0.130262
0.130379
0.130489
0.130599
0.130711
0.130822
0.130932
0.131038
0.131137
0.131227
0.131303
0.131365
0.131408
0.131432
0.131436
0.131418
0.13138
0.131322
0.131246
0.131154
0.131049
0.130935
0.130813
0.130687
0.130561
0.130436
0.130314
0.130195
0.130078
0.129959
0.146545
0.14667
0.146788
0.146906
0.147024
0.147142
0.147257
0.147368
0.147472
0.147565
0.147644
0.147708
0.147753
0.147779
0.147783
0.147765
0.147725
0.147665
0.147587
0.147492
0.147383
0.147263
0.147136
0.147005
0.146872
0.14674
0.14661
0.146482
0.146356
0.146227
0.163403
0.163536
0.163661
0.163784
0.163907
0.16403
0.164149
0.164263
0.16437
0.164465
0.164547
0.164612
0.164659
0.164685
0.164689
0.164671
0.164631
0.16457
0.16449
0.164393
0.164281
0.164159
0.164028
0.163892
0.163755
0.163617
0.163481
0.163347
0.163213
0.163075
0.180781
0.180919
0.181049
0.181176
0.181303
0.181428
0.181549
0.181666
0.181773
0.18187
0.181952
0.182018
0.182065
0.182091
0.182095
0.182078
0.182038
0.181977
0.181897
0.181799
0.181687
0.181563
0.181431
0.181293
0.181152
0.181011
0.180871
0.180732
0.180591
0.180446
0.198627
0.19877
0.198902
0.199032
0.19916
0.199286
0.199408
0.199524
0.199631
0.199727
0.199809
0.199874
0.199921
0.199947
0.199951
0.199934
0.199895
0.199835
0.199756
0.199659
0.199548
0.199425
0.199293
0.199155
0.199014
0.198872
0.198729
0.198587
0.198442
0.198292
0.216903
0.217046
0.21718
0.217309
0.217437
0.217561
0.217682
0.217796
0.217901
0.217995
0.218075
0.218138
0.218184
0.218209
0.218214
0.218197
0.21816
0.218102
0.218025
0.217931
0.217823
0.217703
0.217573
0.217438
0.217298
0.217157
0.217015
0.216871
0.216725
0.216572
0.235574
0.235717
0.235849
0.235977
0.236101
0.236223
0.236339
0.23645
0.236551
0.236641
0.236718
0.236778
0.236822
0.236846
0.236851
0.236835
0.2368
0.236745
0.236672
0.236583
0.236479
0.236364
0.236239
0.236108
0.235973
0.235835
0.235695
0.235554
0.235408
0.235254
0.254622
0.254761
0.254889
0.255013
0.255132
0.255248
0.255359
0.255463
0.255559
0.255644
0.255715
0.255772
0.255813
0.255836
0.255841
0.255827
0.255794
0.255743
0.255675
0.255592
0.255495
0.255387
0.25527
0.255146
0.255017
0.254885
0.25475
0.254613
0.25447
0.254319
0.274036
0.274169
0.274291
0.274407
0.27452
0.274628
0.274731
0.274827
0.274915
0.274993
0.275059
0.275111
0.275148
0.27517
0.275174
0.275162
0.275132
0.275086
0.275025
0.274949
0.274861
0.274762
0.274654
0.27454
0.27442
0.274296
0.274169
0.274039
0.273902
0.273756
0.293819
0.293943
0.294056
0.294164
0.294266
0.294365
0.294458
0.294544
0.294623
0.294692
0.29475
0.294797
0.29483
0.294849
0.294853
0.294842
0.294817
0.294777
0.294723
0.294657
0.294579
0.294492
0.294396
0.294293
0.294185
0.294072
0.293956
0.293835
0.293707
0.29357
0.313986
0.314099
0.314201
0.314296
0.314387
0.314473
0.314554
0.314629
0.314696
0.314755
0.314805
0.314845
0.314873
0.314889
0.314893
0.314885
0.314864
0.314831
0.314786
0.314731
0.314665
0.314591
0.314509
0.31442
0.314326
0.314227
0.314124
0.314015
0.313899
0.313774
0.334565
0.334664
0.334752
0.334833
0.33491
0.334982
0.335049
0.33511
0.335165
0.335212
0.335252
0.335283
0.335306
0.33532
0.335323
0.335317
0.335302
0.335276
0.335242
0.335198
0.335147
0.335087
0.335021
0.334949
0.334871
0.334789
0.334701
0.334608
0.334507
0.334396
0.355598
0.355679
0.35575
0.355816
0.355876
0.355932
0.355983
0.356028
0.356069
0.356103
0.356132
0.356155
0.356171
0.356181
0.356185
0.356181
0.356171
0.356155
0.356131
0.356101
0.356065
0.356023
0.355975
0.355921
0.355862
0.355798
0.355729
0.355654
0.35557
0.355478
0.377136
0.377197
0.37725
0.377298
0.37734
0.377377
0.37741
0.377439
0.377463
0.377484
0.3775
0.377513
0.377523
0.377529
0.377532
0.377532
0.377528
0.37752
0.377509
0.377494
0.377475
0.377451
0.377423
0.377391
0.377353
0.37731
0.377261
0.377206
0.377143
0.377072
0.399247
0.399285
0.399319
0.399346
0.399368
0.399386
0.399399
0.399409
0.399415
0.39942
0.399423
0.399426
0.399428
0.39943
0.399432
0.399435
0.399438
0.39944
0.399442
0.399444
0.399443
0.39944
0.399434
0.399425
0.39941
0.39939
0.399363
0.39933
0.39929
0.399243
0.422002
0.422019
0.422032
0.422038
0.422039
0.422035
0.422026
0.422015
0.422003
0.42199
0.421979
0.421969
0.421963
0.421961
0.421962
0.421968
0.421978
0.421992
0.422008
0.422027
0.422047
0.422067
0.422085
0.422101
0.422111
0.422116
0.422114
0.422104
0.422087
0.422065
)
;

boundaryField
{
    floor
    {
        type            fixedFluxPressure;
        gradient        uniform 0;
        value           nonuniform List<scalar> 
30
(
0.000349736
0.000344591
0.000343386
0.000348559
0.00036017
0.000377439
0.000398979
0.000423132
0.00044813
0.000472209
0.000493706
0.000511145
0.000523302
0.000529258
0.000528436
0.000520625
0.000505998
0.000485104
0.000458853
0.00042848
0.000395493
0.000361617
0.000328709
0.000298674
0.000273362
0.000254428
0.000243116
0.000239876
0.000243869
0.000252192
)
;
    }
    ceiling
    {
        type            fixedFluxPressure;
        gradient        nonuniform List<scalar> 
30
(
7.04152
7.03477
7.02806
7.02144
7.01493
7.00861
7.00257
6.99692
6.9918
6.98731
6.98354
6.98059
6.97852
6.97741
6.97728
6.97816
6.98004
6.98288
6.98664
6.99123
6.99659
7.00261
7.00917
7.01613
7.02337
7.03078
7.03832
7.04598
7.05387
7.06228
)
;
        value           nonuniform List<scalar> 
30
(
0.433733
0.433738
0.43374
0.433735
0.433725
0.43371
0.433692
0.433671
0.43365
0.43363
0.433612
0.433598
0.433588
0.433584
0.433585
0.433593
0.433606
0.433624
0.433647
0.433674
0.433703
0.433733
0.433762
0.433789
0.433811
0.433828
0.433839
0.433842
0.433838
0.43383
)
;
    }
    fixedWalls
    {
        type            fixedFluxPressure;
        gradient        uniform 0;
        value           nonuniform List<scalar> 
60
(
0.000349736
0.00175325
0.00453796
0.00868198
0.0141547
0.0209172
0.0289231
0.0381185
0.0484434
0.0598326
0.0722169
0.0855247
0.099683
0.114619
0.130262
0.146545
0.163403
0.180781
0.198627
0.216903
0.235574
0.254622
0.274036
0.293819
0.313986
0.334565
0.355598
0.377136
0.399247
0.422002
0.000252192
0.00165595
0.00443968
0.00857979
0.0140451
0.0207966
0.0287878
0.0379655
0.0482702
0.0596373
0.0719986
0.0852832
0.0994191
0.114335
0.129959
0.146227
0.163075
0.180446
0.198292
0.216572
0.235254
0.254319
0.273756
0.29357
0.313774
0.334396
0.355478
0.377072
0.399243
0.422065
)
;
    }
    frontAndBack
    {
        type            empty;
    }
}


// ************************************************************************* //
