/*--------------------------------*- C++ -*----------------------------------*\
| =========                 |                                                 |
| \\      /  F ield         | OpenFOAM: The Open Source CFD Toolbox           |
|  \\    /   O peration     | Version:  2412                                  |
|   \\  /    A nd           | Website:  www.openfoam.com                      |
|    \\/     M anipulation  |                                                 |
\*---------------------------------------------------------------------------*/
FoamFile
{
    version     2.0;
    format      ascii;
    arch        "LSB;label=32;scalar=64";
    class       surfaceScalarField;
    location    "700";
    object      phi;
}
// * * * * * * * * * * * * * * * * * * * * * * * * * * * * * * * * * * * * * //

dimensions      [0 3 -1 0 0 0 0];

oriented        oriented;

internalField   nonuniform List<scalar> 
1740
(
-1.61474e-09
1.42741e-09
-6.62342e-09
5.00993e-09
-1.38052e-08
7.18313e-09
-2.1577e-08
7.7734e-09
-2.86743e-08
7.09866e-09
-3.41755e-08
5.50216e-09
-3.74687e-08
3.2935e-09
-3.82036e-08
7.34609e-10
-3.62526e-08
-1.95179e-09
-3.1682e-08
-4.57192e-09
-2.47258e-08
-6.95795e-09
-1.57596e-08
-8.96821e-09
-5.27352e-09
-1.04882e-08
6.15717e-09
-1.14328e-08
1.79019e-08
-1.17468e-08
2.9306e-08
-1.14061e-08
3.97239e-08
-1.04197e-08
4.85516e-08
-8.82935e-09
5.52592e-08
-6.709e-09
5.94214e-08
-4.16323e-09
6.07465e-08
-1.32595e-09
5.91045e-08
1.64144e-09
5.45523e-08
4.5521e-09
4.73627e-08
7.18989e-09
3.80621e-08
9.3015e-09
2.74749e-08
1.05885e-08
1.67737e-08
1.07033e-08
7.49631e-09
9.28016e-09
1.45986e-09
6.04011e-09
1.46389e-09
-5.36696e-09
6.79551e-09
-1.79854e-08
1.76337e-08
-3.46512e-08
2.38535e-08
-5.22755e-08
2.54022e-08
-6.82546e-08
2.3081e-08
-8.05771e-08
1.78266e-08
-8.78288e-08
1.0546e-08
-8.91555e-08
2.06093e-09
-8.42134e-08
-6.89523e-09
-7.312e-08
-1.56674e-08
-5.64005e-08
-2.36801e-08
-3.49281e-08
-3.04436e-08
-9.85907e-09
-3.55602e-08
1.74381e-08
-3.87329e-08
4.54573e-08
-3.97687e-08
7.2634e-08
-3.85851e-08
9.74269e-08
-3.52144e-08
1.18399e-07
-2.98029e-08
1.34297e-07
-2.26078e-08
1.44127e-07
-1.39935e-08
1.47227e-07
-4.4247e-09
1.43328e-07
5.54124e-09
1.3262e-07
1.52628e-08
1.15802e-07
2.40114e-08
9.41449e-08
3.09636e-08
6.95407e-08
3.51989e-08
4.45311e-08
3.57199e-08
2.22648e-08
3.15538e-08
6.29703e-09
2.20153e-08
7.76415e-09
-8.05453e-09
1.48515e-08
-2.58614e-08
3.54446e-08
-4.863e-08
4.66258e-08
-7.2357e-08
4.91321e-08
-9.37077e-08
4.44336e-08
-1.10063e-07
3.41824e-08
-1.19534e-07
2.0017e-08
-1.2095e-07
3.4763e-09
-1.13821e-07
-1.40265e-08
-9.82843e-08
-3.12074e-08
-7.50409e-08
-4.69269e-08
-4.52793e-08
-6.02087e-08
-1.05856e-08
-7.02575e-08
2.71546e-08
-7.64765e-08
6.58605e-08
-7.84778e-08
1.0337e-07
-7.60977e-08
1.37555e-07
-6.94019e-08
1.66435e-07
-5.86843e-08
1.88288e-07
-4.44619e-08
2.01759e-07
-2.74648e-08
2.05956e-07
-8.62192e-09
2.00542e-07
1.09568e-08
1.85806e-07
3.0001e-08
1.62732e-07
4.70873e-08
1.33057e-07
6.06423e-08
9.92986e-08
6.89623e-08
6.47571e-08
7.02672e-08
3.34656e-08
6.28518e-08
1.00881e-08
4.5399e-08
1.78544e-08
-9.50324e-09
2.43572e-08
-3.02818e-08
5.62285e-08
-5.65616e-08
7.29102e-08
-8.37313e-08
7.63051e-08
-1.08034e-07
6.87386e-08
-1.26525e-07
5.26752e-08
-1.37069e-07
3.05605e-08
-1.38324e-07
4.73075e-09
-1.2972e-07
-2.26324e-08
-1.11406e-07
-4.9524e-08
-8.41845e-08
-7.4151e-08
-4.94266e-08
-9.49697e-08
-8.96935e-09
-1.10718e-07
3.49964e-08
-1.20445e-07
8.00501e-08
-1.23534e-07
1.23676e-07
-1.19726e-07
1.63398e-07
-1.09125e-07
1.96915e-07
-9.22018e-08
2.22231e-07
-6.97779e-08
2.3778e-07
-4.30139e-08
2.42543e-07
-1.33828e-08
2.36141e-07
1.73614e-08
2.18924e-07
4.72207e-08
1.92038e-07
7.39771e-08
1.57468e-07
9.52158e-08
1.18066e-07
1.08368e-07
7.7551e-08
1.10787e-07
4.04985e-08
9.99089e-08
1.23882e-08
7.35136e-08
3.02432e-08
-1.00091e-08
3.43688e-08
-3.19693e-08
7.81931e-08
-5.96953e-08
1.0064e-07
-8.82682e-08
1.04881e-07
-1.13729e-07
9.42007e-08
-1.32992e-07
7.19396e-08
-1.43822e-07
4.13891e-08
-1.44809e-07
5.71696e-09
-1.35354e-07
-3.20905e-08
-1.15612e-07
-6.92688e-08
-8.64331e-08
-1.03333e-07
-4.92712e-08
-1.32135e-07
-6.07875e-09
-1.53914e-07
4.08127e-08
-1.6734e-07
8.88251e-08
-1.71549e-07
1.35279e-07
-1.66181e-07
1.77536e-07
-1.51384e-07
2.13147e-07
-1.27814e-07
2.39991e-07
-9.66221e-08
2.56406e-07
-5.94288e-08
2.61312e-07
-1.82881e-08
2.54315e-07
2.43607e-08
2.35789e-07
6.57489e-08
2.06946e-07
1.02822e-07
1.69879e-07
1.32285e-07
1.27585e-07
1.50664e-07
8.39821e-08
1.54392e-07
4.39486e-08
1.39944e-07
1.34531e-08
1.04011e-07
4.36954e-08
-9.85441e-09
4.42257e-08
-3.1645e-08
9.99875e-08
-5.92175e-08
1.28215e-07
-8.76201e-08
1.33285e-07
-1.12877e-07
1.19459e-07
-1.31902e-07
9.09646e-08
-1.42461e-07
5.19475e-08
-1.43153e-07
6.40629e-09
-1.33377e-07
-4.18686e-08
-1.13295e-07
-8.93537e-08
-8.37607e-08
-1.32871e-07
-4.62346e-08
-1.69665e-07
-2.67972e-09
-1.97472e-07
4.45585e-08
-2.14581e-07
9.28864e-08
-2.1988e-07
1.39607e-07
-2.12905e-07
1.82068e-07
-1.93846e-07
2.17802e-07
-1.6355e-07
2.44678e-07
-1.23498e-07
2.61024e-07
-7.57757e-08
2.65757e-07
-2.30206e-08
2.58479e-07
3.16391e-08
2.39567e-07
8.46614e-08
2.10236e-07
1.32154e-07
1.72583e-07
1.6994e-07
1.29617e-07
1.9363e-07
8.52929e-08
1.98716e-07
4.45757e-08
1.80661e-07
1.35916e-08
1.34994e-07
5.72854e-08
-9.25825e-09
5.3486e-08
-2.99037e-08
1.20635e-07
-5.612e-08
1.54433e-07
-8.3152e-08
1.60318e-07
-1.07167e-07
1.43474e-07
-1.25192e-07
1.08989e-07
-1.35079e-07
6.18326e-08
-1.35482e-07
6.80667e-09
-1.25829e-07
-5.15246e-08
-1.06278e-07
-1.08908e-07
-7.76535e-08
-1.61498e-07
-4.13646e-08
-2.05956e-07
6.97069e-10
-2.39536e-07
4.62709e-08
-2.60157e-07
9.28576e-08
-2.66469e-07
1.37858e-07
-2.57907e-07
1.78715e-07
-2.34704e-07
2.13051e-07
-1.97887e-07
2.38809e-07
-1.49257e-07
2.5438e-07
-9.13468e-08
2.58715e-07
-2.73563e-08
2.51432e-07
3.89227e-08
2.32891e-07
1.03202e-07
2.04264e-07
1.6078e-07
1.67579e-07
2.06624e-07
1.25752e-07
2.35456e-07
8.26328e-08
2.41834e-07
4.30745e-08
2.20216e-07
1.30662e-08
1.64999e-07
7.03505e-08
-8.37444e-09
6.18618e-08
-2.71926e-08
1.39455e-07
-5.11775e-08
1.78419e-07
-7.59453e-08
1.85086e-07
-9.79391e-08
1.65467e-07
-1.14395e-07
1.25443e-07
-1.23317e-07
7.07526e-08
-1.23456e-07
6.94408e-09
-1.14285e-07
-6.06972e-08
-9.59554e-08
-1.2724e-07
-6.92342e-08
-1.88221e-07
-3.54314e-08
-2.39761e-07
3.69544e-09
-2.78664e-07
4.6047e-08
-3.0251e-07
8.93036e-08
-3.09726e-07
1.31052e-07
-2.99656e-07
1.68918e-07
-2.72569e-07
2.00692e-07
-2.29661e-07
2.24464e-07
-1.73029e-07
2.38735e-07
-1.05618e-07
2.4253e-07
-3.11516e-08
2.35491e-07
4.59618e-08
2.17954e-07
1.20739e-07
1.91012e-07
1.87722e-07
1.56561e-07
2.41074e-07
1.17339e-07
2.74677e-07
7.69649e-08
2.82206e-07
4.00053e-08
2.57175e-07
1.20735e-08
1.9293e-07
8.24247e-08
-7.30802e-09
6.91705e-08
-2.38371e-08
1.55984e-07
-4.49752e-08
1.99557e-07
-6.68347e-08
2.06944e-07
-8.62384e-08
1.8487e-07
-1.0071e-07
1.39913e-07
-1.08459e-07
7.85004e-08
-1.08369e-07
6.85276e-09
-9.99698e-08
-6.90972e-08
-8.34e-08
-1.43811e-07
-5.93503e-08
-2.12272e-07
-2.89952e-08
-2.70116e-07
6.09108e-09
-3.1375e-07
4.40293e-08
-3.40447e-07
8.27444e-08
-3.4844e-07
1.20077e-07
-3.36987e-07
1.53901e-07
-3.06391e-07
1.82241e-07
-2.57998e-07
2.03381e-07
-1.94166e-07
2.15978e-07
-1.18213e-07
2.19157e-07
-3.43287e-08
2.12593e-07
5.25264e-08
1.9659e-07
1.36743e-07
1.72134e-07
2.12178e-07
1.40941e-07
2.72269e-07
1.05489e-07
3.10129e-07
6.90637e-08
3.18632e-07
3.58005e-08
2.90439e-07
1.07556e-08
2.17977e-07
9.31829e-08
-6.13027e-09
7.53009e-08
-2.00712e-08
1.69924e-07
-3.79486e-08
2.17434e-07
-5.64563e-08
2.25451e-07
-7.2873e-08
2.01286e-07
-8.507e-08
1.5211e-07
-9.15081e-08
8.49378e-08
-9.12281e-08
6.57207e-09
-8.38289e-08
-7.64966e-08
-6.94331e-08
-1.58206e-07
-4.8638e-08
-2.33066e-07
-2.24556e-08
-2.96298e-07
7.75991e-09
-3.43964e-07
4.03939e-08
-3.73079e-07
7.36645e-08
-3.81708e-07
1.05717e-07
-3.69037e-07
1.34726e-07
-3.35396e-07
1.58991e-07
-2.82259e-07
1.77037e-07
-2.12209e-07
1.87706e-07
-1.28879e-07
1.90242e-07
-3.68614e-08
1.84363e-07
5.84069e-08
1.70333e-07
1.50775e-07
1.49007e-07
2.33506e-07
1.21876e-07
2.99402e-07
9.11011e-08
3.40907e-07
5.95409e-08
3.50195e-07
3.07896e-08
3.19194e-07
9.21461e-09
2.39556e-07
1.024e-07
-4.89021e-09
8.01912e-08
-1.60628e-08
1.81096e-07
-3.04202e-08
2.31791e-07
-4.52913e-08
2.40322e-07
-5.84634e-08
2.14457e-07
-6.82002e-08
1.61846e-07
-7.32454e-08
8.99825e-08
-7.28182e-08
6.14452e-09
-6.65955e-08
-8.27194e-08
-5.4682e-08
-1.7012e-07
-3.75698e-08
-2.50178e-07
-1.60885e-08
-3.17778e-07
8.65483e-09
-3.68706e-07
3.53424e-08
-3.99765e-07
6.25209e-08
-4.08884e-07
8.86776e-08
-3.95192e-07
1.12322e-07
-3.59038e-07
1.32065e-07
-3.02e-07
1.46702e-07
-2.26842e-07
1.55282e-07
-1.37456e-07
1.57184e-07
-3.87605e-08
1.52175e-07
6.34179e-08
1.4047e-07
1.62482e-07
1.22775e-07
2.51204e-07
1.00323e-07
3.21857e-07
7.49014e-08
3.66331e-07
4.88791e-08
3.76221e-07
2.52239e-08
3.42853e-07
7.52454e-09
2.57259e-07
1.09925e-07
-3.62224e-09
8.38132e-08
-1.19335e-08
1.89406e-07
-2.26293e-08
2.42486e-07
-3.37035e-08
2.51395e-07
-4.34846e-08
2.24238e-07
-5.06585e-08
1.69018e-07
-5.42748e-08
9.35979e-08
-5.37458e-08
5.61452e-09
-4.88326e-08
-8.76334e-08
-3.96209e-08
-1.79332e-07
-2.64897e-08
-2.6331e-07
-1.00727e-08
-3.34196e-07
8.78864e-09
-3.87567e-07
2.90954e-08
-4.20071e-07
4.97468e-08
-4.29535e-07
6.95967e-08
-4.15042e-07
8.75152e-08
-3.76957e-07
1.02449e-07
-3.16934e-07
1.1348e-07
-2.37873e-07
1.19884e-07
-1.4386e-07
1.21183e-07
-4.00595e-08
1.17198e-07
6.7404e-08
1.08088e-07
1.71592e-07
9.43943e-08
2.64898e-07
7.7065e-08
3.39187e-07
5.74785e-08
3.85919e-07
3.74605e-08
3.96241e-07
1.9297e-08
3.61018e-07
5.73989e-09
2.70817e-07
1.15663e-07
-2.35083e-09
8.61637e-08
-7.77253e-09
1.94825e-07
-1.47544e-08
2.49466e-07
-2.19676e-08
2.58606e-07
-2.82992e-08
2.30567e-07
-3.28743e-08
1.73592e-07
-3.5062e-08
9.57838e-08
-3.44769e-08
5.02757e-09
-3.09683e-08
-9.11437e-08
-2.46025e-08
-1.85699e-07
-1.564e-08
-2.72273e-07
-4.51038e-09
-3.45327e-07
8.22131e-09
-4.003e-07
2.18881e-08
-4.33739e-07
3.57562e-08
-4.43404e-07
4.90611e-08
-4.28348e-07
6.10481e-08
-3.88947e-07
7.10124e-08
-3.26901e-07
7.83375e-08
-2.45201e-07
8.25336e-08
-1.48058e-07
8.32741e-08
-4.08014e-08
8.0431e-08
7.02462e-08
7.41078e-08
1.77915e-07
6.46677e-08
2.74338e-07
5.27553e-08
3.511e-07
3.93129e-08
3.99362e-07
2.55923e-08
4.09962e-07
1.3161e-08
3.73449e-07
3.90235e-09
2.80073e-07
1.19563e-07
-1.09377e-09
8.72568e-08
-3.64544e-09
1.97374e-07
-6.92839e-09
2.52747e-07
-1.02908e-08
2.61966e-07
-1.31832e-08
2.33457e-07
-1.51758e-08
1.75582e-07
-1.59633e-08
9.65694e-08
-1.53659e-08
4.42852e-09
-1.33234e-08
-9.31881e-08
-9.88195e-09
-1.89141e-07
-5.18113e-09
-2.76974e-07
5.57739e-10
-3.51066e-07
7.05028e-09
-4.06794e-07
1.3967e-08
-4.40656e-07
2.09468e-08
-4.50384e-07
2.76131e-08
-4.35014e-07
3.35929e-08
-3.94927e-07
3.85359e-08
-3.31845e-07
4.2132e-08
-2.48799e-07
4.41304e-08
-1.50058e-07
4.43581e-08
-4.10296e-08
4.274e-08
7.18643e-08
3.93195e-08
1.81336e-07
3.4276e-08
2.79382e-07
2.79399e-08
3.57436e-07
2.08027e-08
4.06499e-07
1.35249e-08
4.17239e-07
6.9387e-09
3.80034e-07
2.04592e-09
2.84964e-07
1.21611e-07
1.35962e-10
8.71198e-08
3.99287e-10
1.97107e-07
7.49257e-10
2.52395e-07
1.17046e-09
2.61542e-07
1.65417e-09
2.32971e-07
2.18723e-09
1.75047e-07
2.75104e-09
9.60044e-08
3.32069e-09
3.85857e-09
3.8668e-09
-9.37348e-08
4.36301e-09
-1.89638e-07
4.7915e-09
-2.77401e-07
5.1395e-09
-3.51413e-07
5.40272e-09
-4.07057e-07
5.58706e-09
-4.4084e-07
5.7025e-09
-4.50498e-07
5.75931e-09
-4.35069e-07
5.7653e-09
-3.94931e-07
5.72345e-09
-3.31801e-07
5.6296e-09
-2.48703e-07
5.47124e-09
-1.49897e-07
5.22883e-09
-4.07846e-08
4.88001e-09
7.22161e-08
4.4069e-09
1.81812e-07
3.80354e-09
2.79989e-07
3.08305e-09
3.5816e-07
2.28263e-09
4.07302e-07
1.46753e-09
4.18056e-07
7.32478e-10
3.8077e-07
1.99821e-10
2.855e-07
1.21816e-07
1.3292e-09
8.57892e-08
4.32631e-09
1.94107e-07
8.2045e-09
2.48514e-07
1.2298e-08
2.57446e-07
1.60532e-08
2.29215e-07
1.90241e-08
1.72074e-07
2.08755e-08
9.41523e-08
2.13834e-08
3.35182e-09
2.0432e-08
-9.27824e-08
1.80146e-08
-1.87222e-07
1.42332e-08
-2.73618e-07
9.28081e-09
-3.46457e-07
3.42811e-09
-4.01203e-07
-2.9915e-09
-4.3442e-07
-9.60497e-09
-4.43883e-07
-1.60229e-08
-4.28649e-07
-2.18643e-08
-3.89086e-07
-2.67799e-08
-3.26882e-07
-3.04741e-08
-2.45005e-07
-3.27256e-08
-1.47642e-07
-3.34032e-08
-4.01029e-08
-3.24775e-08
7.12947e-08
-3.00263e-08
1.79365e-07
-2.62381e-08
2.76204e-07
-2.14123e-08
3.53338e-07
-1.59598e-08
4.01853e-07
-1.04022e-08
4.12502e-07
-5.37168e-09
3.75745e-07
-1.612e-09
2.81748e-07
1.20209e-07
2.47935e-09
8.33086e-08
8.10892e-09
1.88475e-07
1.53802e-08
2.41242e-07
2.29996e-08
2.49825e-07
2.98888e-08
2.22326e-07
3.5186e-08
1.66777e-07
3.82513e-08
9.10857e-08
3.8671e-08
2.93288e-09
3.62489e-08
-9.03584e-08
3.09982e-08
-1.81973e-07
2.3136e-08
-2.65757e-07
1.30548e-08
-3.36375e-07
1.29109e-09
-3.89438e-07
-1.15059e-08
-4.21624e-07
-2.46138e-08
-4.30777e-07
-3.72784e-08
-4.15986e-07
-4.87593e-08
-3.77606e-07
-5.83732e-08
-3.17269e-07
-6.55358e-08
-2.37842e-07
-6.98e-08
-1.43377e-07
-7.08889e-08
-3.90129e-08
-6.87219e-08
6.91289e-08
-6.34339e-08
1.74078e-07
-5.53883e-08
2.68159e-07
-4.51855e-08
3.43135e-07
-3.3669e-08
3.90337e-07
-2.19281e-08
4.00763e-07
-1.13e-08
3.6512e-07
-3.37182e-09
2.73825e-07
1.16834e-07
3.5811e-09
7.97267e-08
1.17247e-08
1.8033e-07
2.22282e-08
2.30737e-07
3.31974e-08
2.38854e-07
4.30555e-08
2.12468e-07
5.0548e-08
1.59284e-07
5.47476e-08
8.68833e-08
5.50622e-08
2.6164e-09
5.12231e-08
-8.65176e-08
4.3265e-08
-1.74016e-07
3.15139e-08
-2.5401e-07
1.65509e-08
-3.21415e-07
-8.33996e-10
-3.72054e-07
-1.96916e-08
-4.02767e-07
-3.89688e-08
-4.11502e-07
-5.75667e-08
-3.97391e-07
-7.44051e-08
-3.60771e-07
-8.84844e-08
-3.03192e-07
-9.89465e-08
-2.27382e-07
-1.0513e-07
-1.37195e-07
-1.06618e-07
-3.75268e-08
-1.0328e-07
6.57894e-08
-9.53036e-08
1.661e-07
-8.32153e-08
2.56069e-07
-6.78985e-08
3.27816e-07
-5.06054e-08
3.73043e-07
-3.29644e-08
3.83122e-07
-1.69857e-08
3.49143e-07
-5.06562e-09
2.61903e-07
1.11763e-07
4.62924e-09
7.50971e-08
1.51516e-08
1.69806e-07
2.87013e-08
2.17187e-07
4.28159e-08
2.24737e-07
5.54511e-08
1.99831e-07
6.49899e-08
1.49747e-07
7.02399e-08
8.16309e-08
7.0444e-08
2.40801e-09
6.52686e-08
-8.13418e-08
5.47736e-08
-1.63519e-07
3.9387e-08
-2.38624e-07
1.98643e-08
-3.01895e-07
-2.76888e-09
-3.49422e-07
-2.72833e-08
-3.78252e-07
-5.23176e-08
-3.86466e-07
-7.64537e-08
-3.73253e-07
-9.8296e-08
-3.38928e-07
-1.16552e-07
-2.84936e-07
-1.30108e-07
-2.13825e-07
-1.38103e-07
-1.292e-07
-1.39989e-07
-3.564e-08
-1.35587e-07
6.13883e-08
-1.25129e-07
1.55643e-07
-1.0929e-07
2.40231e-07
-8.92142e-08
3.07742e-07
-6.65297e-08
3.50361e-07
-4.33656e-08
3.59961e-07
-2.23614e-08
3.2814e-07
-6.67631e-09
2.46215e-07
1.05089e-07
5.61739e-09
6.94791e-08
1.83631e-08
1.57057e-07
3.47432e-08
2.00807e-07
5.17663e-08
2.07711e-07
6.69579e-08
1.84635e-07
7.83733e-08
1.38333e-07
8.45843e-08
7.54215e-08
8.46856e-08
2.30374e-09
7.82846e-08
-7.49427e-08
6.54689e-08
-1.507e-07
4.67632e-08
-2.19915e-07
2.30809e-08
-2.78212e-07
-4.33994e-09
-3.22002e-07
-3.40157e-08
-3.48576e-07
-6.43049e-08
-3.56174e-07
-9.3499e-08
-3.44055e-07
-1.19917e-07
-3.12505e-07
-1.42001e-07
-2.62847e-07
-1.58407e-07
-1.97416e-07
-1.68089e-07
-1.19514e-07
-1.70379e-07
-3.33458e-08
-1.65052e-07
5.6065e-08
-1.52376e-07
1.42972e-07
-1.33158e-07
2.21018e-07
-1.08771e-07
2.83361e-07
-8.11822e-08
3.22778e-07
-5.29708e-08
3.31755e-07
-2.73492e-08
3.02521e-07
-8.17838e-09
2.27045e-07
9.69198e-08
6.5361e-09
6.29423e-08
2.13216e-08
1.42268e-07
4.02752e-08
1.81854e-07
5.99274e-08
1.8806e-07
7.74179e-08
1.6714e-07
9.05145e-08
1.25237e-07
9.7587e-08
6.83535e-08
9.76054e-08
2.28714e-09
9.01242e-08
-6.74654e-08
7.52563e-08
-1.35834e-07
5.36163e-08
-1.98273e-07
2.62592e-08
-2.50852e-07
-5.39122e-09
-2.90352e-07
-3.96293e-08
-3.1434e-07
-7.4568e-08
-3.21238e-07
-1.08244e-07
-3.1038e-07
-1.38725e-07
-2.82024e-07
-1.64221e-07
-2.37352e-07
-1.83182e-07
-1.78456e-07
-1.94402e-07
-1.08295e-07
-1.97106e-07
-3.06433e-08
-1.91022e-07
4.99806e-08
-1.76449e-07
1.28399e-07
-1.54303e-07
1.98872e-07
-1.26154e-07
2.55212e-07
-9.42585e-08
2.90882e-07
-6.15869e-08
2.99081e-07
-3.1852e-08
2.72783e-07
-9.54281e-09
2.0474e-07
8.73753e-08
7.36961e-09
5.55726e-08
2.39682e-08
1.25666e-07
4.51781e-08
1.60644e-07
6.71179e-08
1.66125e-07
8.65996e-08
1.47655e-07
1.01148e-07
1.10685e-07
1.08967e-07
6.05345e-08
1.08932e-07
2.3275e-09
1.00554e-07
-5.90893e-08
8.39663e-08
-1.19252e-07
5.98598e-08
-1.74169e-07
2.94116e-08
-2.20404e-07
-5.79709e-09
-2.55143e-07
-4.38763e-08
-2.76262e-07
-8.27349e-08
-2.82381e-07
-1.20198e-07
-2.7292e-07
-1.54124e-07
-2.481e-07
-1.82527e-07
-2.08952e-07
-2.03687e-07
-1.57298e-07
-2.16261e-07
-9.57227e-08
-2.19381e-07
-2.7526e-08
-2.12735e-07
4.3333e-08
-1.96643e-07
1.12305e-07
-1.72106e-07
1.74334e-07
-1.40854e-07
2.23958e-07
-1.05378e-07
2.55403e-07
-6.89664e-08
2.62665e-07
-3.5745e-08
2.3956e-07
-1.07418e-08
1.79742e-07
7.66255e-08
8.08977e-09
4.74844e-08
2.62073e-08
1.07546e-07
4.92679e-08
1.37579e-07
7.30639e-08
1.42336e-07
9.41561e-08
1.26564e-07
1.0988e-07
9.49568e-08
1.18314e-07
5.20952e-08
1.18262e-07
2.38253e-09
1.09213e-07
-5.0036e-08
9.13135e-08
-1.01352e-07
6.5313e-08
-1.4817e-07
3.24834e-08
-1.87574e-07
-5.47154e-09
-2.17185e-07
-4.65196e-08
-2.35209e-07
-8.84149e-08
-2.40481e-07
-1.28821e-07
-2.32508e-07
-1.65439e-07
-2.11478e-07
-1.96131e-07
-1.78255e-07
-2.19048e-07
-1.34378e-07
-2.32738e-07
-8.2028e-08
-2.36259e-07
-2.4e-08
-2.29267e-07
3.63457e-08
-2.12091e-07
9.51336e-08
-1.85795e-07
1.48043e-07
-1.52227e-07
1.90393e-07
-1.14048e-07
2.17228e-07
-7.47791e-08
2.23401e-07
-3.88571e-08
2.03647e-07
-1.17302e-08
1.52617e-07
6.4901e-08
8.64757e-09
3.88385e-08
2.78841e-08
8.83119e-08
5.22643e-08
1.13189e-07
7.73617e-08
1.1724e-07
9.95811e-08
1.04349e-07
1.16138e-07
7.84007e-08
1.25029e-07
4.32014e-08
1.2501e-07
2.40072e-09
1.15562e-07
-4.0585e-08
9.68491e-08
-8.26354e-08
6.96564e-08
-1.20978e-07
3.53163e-08
-1.53237e-07
-4.38929e-09
-1.77483e-07
-4.73381e-08
-1.92263e-07
-9.11869e-08
-1.96634e-07
-1.335e-07
-1.90197e-07
-1.71878e-07
-1.73101e-07
-2.04092e-07
-1.46044e-07
-2.28205e-07
-1.10267e-07
-2.42698e-07
-6.75372e-08
-2.46576e-07
-2.01235e-08
-2.39468e-07
2.92365e-08
-2.21707e-07
7.73707e-08
-1.94393e-07
1.20726e-07
-1.5944e-07
1.55437e-07
-1.19615e-07
1.77401e-07
-7.85785e-08
1.82365e-07
-4.0948e-08
1.66018e-07
-1.24232e-08
1.24081e-07
5.24804e-08
8.96346e-09
2.98732e-08
2.87592e-08
6.85249e-08
5.37514e-08
8.81885e-08
7.94318e-08
9.15567e-08
1.02158e-07
8.16255e-08
1.19109e-07
6.14543e-08
1.2825e-07
3.40588e-08
1.28324e-07
2.32147e-09
1.18814e-07
-3.10786e-08
9.98961e-08
-6.37171e-08
7.23747e-08
-9.34535e-08
3.76015e-08
-1.18462e-07
-2.61949e-09
-1.37261e-07
-4.61413e-08
-1.48741e-07
-9.05956e-08
-1.52179e-07
-1.33521e-07
-1.47271e-07
-1.72495e-07
-1.34127e-07
-2.05259e-07
-1.1328e-07
-2.29851e-07
-8.56737e-08
-2.44728e-07
-5.26604e-08
-2.48871e-07
-1.59798e-08
-2.41892e-07
2.22583e-08
-2.24117e-07
5.95952e-08
-1.9665e-07
9.32578e-08
-1.61422e-07
1.20209e-07
-1.2123e-07
1.3721e-07
-7.97654e-08
1.40902e-07
-4.16813e-08
1.2793e-07
-1.27046e-08
9.5109e-08
3.97711e-08
8.916e-09
2.09505e-08
2.84827e-08
4.897e-08
5.31354e-08
6.35352e-08
7.8461e-08
6.62287e-08
1.00892e-07
5.91915e-08
1.17663e-07
4.46869e-08
1.2678e-07
2.49481e-08
1.27008e-07
2.09503e-09
1.17847e-07
-2.19205e-08
9.94814e-08
-4.5353e-08
7.27044e-08
-6.66763e-08
3.88409e-08
-8.45969e-08
-3.49178e-10
-9.80692e-08
-4.27765e-08
-1.06312e-07
-8.61379e-08
-1.08816e-07
-1.28041e-07
-1.05366e-07
-1.66128e-07
-9.60388e-08
-1.98202e-07
-8.12047e-08
-2.22347e-07
-6.15277e-08
-2.37047e-07
-3.79582e-08
-2.413e-07
-1.17259e-08
-2.3471e-07
1.56699e-08
-2.17583e-07
4.24682e-08
-1.90988e-07
6.66638e-08
-1.56814e-07
8.60374e-08
-1.17799e-07
9.81981e-08
-7.75514e-08
1.00655e-07
-4.05865e-08
9.09591e-08
-1.24205e-08
6.69524e-08
2.73536e-08
8.32342e-09
1.26201e-08
2.65694e-08
3.0732e-08
4.96151e-08
4.04901e-08
7.33605e-08
4.24837e-08
9.44531e-08
3.80954e-08
1.10286e-07
2.88524e-08
1.18987e-07
1.62494e-08
1.19409e-07
1.67791e-09
1.11092e-07
-1.36018e-08
9.42176e-08
-2.84789e-08
6.95337e-08
-4.19936e-08
3.82752e-08
-5.33393e-08
2.07309e-09
-6.18677e-08
-3.71429e-08
-6.7096e-08
-7.72494e-08
-6.87103e-08
-1.16041e-07
-6.65751e-08
-1.51344e-07
-6.07367e-08
-1.81127e-07
-5.14225e-08
-2.03614e-07
-3.90412e-08
-2.17393e-07
-2.41799e-08
-2.21518e-07
-7.60227e-09
-2.15604e-07
9.75445e-09
-1.99915e-07
2.67783e-08
-1.75438e-07
4.2186e-08
-1.43935e-07
5.45343e-08
-1.07978e-07
6.22395e-08
-7.09521e-08
6.36262e-08
-3.7052e-08
5.7062e-08
-1.13318e-08
4.12222e-08
1.60236e-08
6.94086e-09
5.67557e-09
2.24122e-08
1.5263e-08
4.22041e-08
2.07004e-08
6.27582e-08
2.19321e-08
8.11132e-08
1.97401e-08
9.4965e-08
1.49963e-08
1.02682e-07
8.52845e-09
1.03283e-07
1.07716e-09
9.63894e-08
-6.70646e-09
8.21729e-08
-1.42604e-08
6.12864e-08
-2.11056e-08
3.47911e-08
-2.6843e-08
4.07843e-09
-3.1154e-08
-2.92139e-08
-3.38026e-08
-6.3288e-08
-3.46353e-08
-9.62776e-08
-3.35847e-08
-1.26341e-07
-3.06726e-08
-1.51753e-07
-2.60093e-08
-1.71e-07
-1.97935e-08
-1.82867e-07
-1.23124e-08
-1.86528e-07
-3.94122e-09
-1.81629e-07
4.85584e-09
-1.68371e-07
1.3521e-08
-1.47583e-07
2.13987e-08
-1.20782e-07
2.77338e-08
-9.02148e-08
3.16713e-08
-5.88661e-08
3.22743e-08
-3.0412e-08
2.86181e-08
-9.1562e-09
1.9962e-08
6.87205e-09
4.49491e-09
1.17901e-09
1.53959e-08
4.36358e-09
2.98366e-08
6.26019e-09
4.5048e-08
6.72425e-09
5.87215e-08
6.07214e-09
6.90977e-08
4.62273e-09
7.49671e-08
2.65836e-09
7.56276e-08
4.14862e-10
7.08309e-08
-1.91089e-09
6.07249e-08
-4.15489e-09
4.57989e-08
-6.17987e-09
2.68284e-08
-7.87274e-09
4.81764e-09
-9.1436e-09
-1.90589e-08
-9.92654e-09
-4.35162e-08
-1.01785e-08
-6.72215e-08
-9.88008e-09
-8.88578e-08
-9.03702e-09
-1.07188e-07
-7.67974e-09
-1.21118e-07
-5.86355e-09
-1.29763e-07
-3.6688e-09
-1.32505e-07
-1.20098e-09
-1.29058e-07
1.40829e-09
-1.19536e-07
3.99791e-09
-1.04511e-07
6.37325e-09
-8.50805e-08
8.30174e-09
-6.29177e-08
9.50644e-09
-4.03027e-08
9.66194e-09
-2.01183e-08
8.42454e-09
-5.64465e-09
5.48351e-09
1.23634e-09
1.18027e-09
5.54373e-09
1.18021e-08
1.85241e-08
2.45957e-08
2.92195e-08
3.18794e-08
3.22954e-08
3.03853e-08
2.6231e-08
2.00518e-08
1.21798e-08
3.03697e-09
-6.88894e-09
-1.70669e-08
-2.69463e-08
-3.59826e-08
-4.36617e-08
-4.95248e-08
-5.31935e-08
-5.43941e-08
-5.29851e-08
-4.89866e-08
-4.26133e-08
-3.43127e-08
-2.48067e-08
-1.51363e-08
-6.71429e-09
-1.23078e-09
)
;

boundaryField
{
    floor
    {
        type            calculated;
        value           uniform 0;
    }
    ceiling
    {
        type            calculated;
        value           uniform 0;
    }
    fixedWalls
    {
        type            calculated;
        value           uniform 0;
    }
    frontAndBack
    {
        type            empty;
    }
}


// ************************************************************************* //
