/*--------------------------------*- C++ -*----------------------------------*\
| =========                 |                                                 |
| \\      /  F ield         | OpenFOAM: The Open Source CFD Toolbox           |
|  \\    /   O peration     | Version:  2412                                  |
|   \\  /    A nd           | Website:  www.openfoam.com                      |
|    \\/     M anipulation  |                                                 |
\*---------------------------------------------------------------------------*/
FoamFile
{
    version     2.0;
    format      ascii;
    arch        "LSB;label=32;scalar=64";
    class       volVectorField;
    location    "700";
    object      U;
}
// * * * * * * * * * * * * * * * * * * * * * * * * * * * * * * * * * * * * * //

dimensions      [0 1 -1 0 0 0 0];

internalField   nonuniform List<vector> 
900
(
(-2.34206e-07 -2.50859e-07 0)
(-1.02967e-05 2.07067e-06 0)
(-2.96847e-05 3.52787e-06 0)
(-5.31548e-05 3.93482e-06 0)
(-7.62344e-05 3.60236e-06 0)
(-9.56811e-05 2.78992e-06 0)
(-0.000109217 1.69836e-06 0)
(-0.00011543 4.68768e-07 0)
(-0.000113628 -7.94377e-07 0)
(-0.000103735 -2.00679e-06 0)
(-8.62216e-05 -3.09841e-06 0)
(-6.20211e-05 -4.01156e-06 0)
(-3.24529e-05 -4.69999e-06 0)
(8.63811e-07 -5.13032e-06 0)
(3.60976e-05 -5.28055e-06 0)
(7.1297e-05 -5.14031e-06 0)
(0.000104488 -4.71292e-06 0)
(0.000133771 -4.01499e-06 0)
(0.000157424 -3.07592e-06 0)
(0.000173992 -1.9376e-06 0)
(0.000182377 -6.5404e-07 0)
(0.00018193 7.08707e-07 0)
(0.000172521 2.07346e-06 0)
(0.000154621 3.34597e-06 0)
(0.000129402 4.40264e-06 0)
(9.88552e-05 5.07497e-06 0)
(6.5955e-05 5.12631e-06 0)
(3.47733e-05 4.25787e-06 0)
(1.04941e-05 2.17912e-06 0)
(-5.9395e-07 -6.68745e-07 0)
(-2.57942e-06 9.78356e-06 0)
(-3.08916e-05 2.91369e-05 0)
(-7.71184e-05 4.08387e-05 0)
(-0.000130733 4.39827e-05 0)
(-0.000182838 4.01116e-05 0)
(-0.000226555 3.10446e-05 0)
(-0.000256749 1.84759e-05 0)
(-0.000270054 3.87689e-06 0)
(-0.000264708 -1.14805e-05 0)
(-0.000240411 -2.64813e-05 0)
(-0.000198166 -4.01558e-05 0)
(-0.000140118 -5.16842e-05 0)
(-6.93622e-05 -6.04028e-05 0)
(1.02627e-05 -6.58181e-05 0)
(9.43853e-05 -6.76091e-05 0)
(0.00017834 -6.56372e-05 0)
(0.000257408 -5.99552e-05 0)
(0.000327062 -5.08058e-05 0)
(0.000383209 -3.86172e-05 0)
(0.000422424 -2.39959e-05 0)
(0.00044217 -7.71785e-06 0)
(0.000441008 9.28294e-06 0)
(0.000418777 2.59261e-05 0)
(0.000376766 4.09683e-05 0)
(0.00031789 5.29684e-05 0)
(0.00024686 6.02587e-05 0)
(0.000170335 6.09505e-05 0)
(9.68578e-05 5.31321e-05 0)
(3.68832e-05 3.55019e-05 0)
(2.49663e-06 1.05144e-05 0)
(-4.22808e-06 3.08588e-05 0)
(-4.56226e-05 7.64192e-05 0)
(-0.000109546 0.000101947 0)
(-0.000182115 0.000108055 0)
(-0.000251942 9.79831e-05 0)
(-0.000310183 7.55243e-05 0)
(-0.000350057 4.44189e-05 0)
(-0.000367002 8.12164e-06 0)
(-0.000358557 -3.02412e-05 0)
(-0.000324235 -6.78563e-05 0)
(-0.000265349 -0.000102242 0)
(-0.000184795 -0.000131281 0)
(-8.68063e-05 -0.000153252 0)
(2.33391e-05 -0.000166866 0)
(0.000139604 -0.000171287 0)
(0.000255542 -0.00016616 0)
(0.00036463 -0.000151624 0)
(0.000460622 -0.000128315 0)
(0.000537882 -9.73474e-05 0)
(0.000591718 -6.02999e-05 0)
(0.000618691 -1.91835e-05 0)
(0.000616894 2.35925e-05 0)
(0.000586202 6.52613e-05 0)
(0.000528481 0.000102698 0)
(0.000447779 0.000132404 0)
(0.000350454 0.000150533 0)
(0.000245274 0.000152998 0)
(0.000143175 0.000135888 0)
(5.76354e-05 9.64277e-05 0)
(4.87542e-06 3.61084e-05 0)
(-5.0121e-06 5.79063e-05 0)
(-5.37352e-05 0.000135747 0)
(-0.000127911 0.000177238 0)
(-0.000211301 0.000186128 0)
(-0.000290998 0.000167998 0)
(-0.000357092 0.00012896 0)
(-0.00040194 7.50966e-05 0)
(-0.000420347 1.21806e-05 0)
(-0.000409474 -5.44395e-05 0)
(-0.00036873 -0.000119876 0)
(-0.000299602 -0.000179777 0)
(-0.000205419 -0.000230404 0)
(-9.10777e-05 -0.000268706 0)
(3.73004e-05 -0.000292393 0)
(0.000172691 -0.000299975 0)
(0.000307594 -0.000290825 0)
(0.000434419 -0.000265197 0)
(0.000545901 -0.000224219 0)
(0.000635497 -0.000169878 0)
(0.000697777 -0.000104974 0)
(0.000728781 -3.30672e-05 0)
(0.000726343 4.15928e-05 0)
(0.000690365 0.000114155 0)
(0.000623047 0.000179205 0)
(0.000529057 0.000230809 0)
(0.000415639 0.000262599 0)
(0.000292681 0.00026799 0)
(0.000172466 0.000240671 0)
(7.04766e-05 0.000175517 0)
(6.16126e-06 7.07408e-05 0)
(-5.19116e-06 8.76913e-05 0)
(-5.66819e-05 0.000200945 0)
(-0.000135073 0.000259534 0)
(-0.000222929 0.000271002 0)
(-0.000306592 0.000243727 0)
(-0.000375674 0.000186386 0)
(-0.000422175 0.000107566 0)
(-0.000440647 1.5512e-05 0)
(-0.000428104 -8.20367e-05 0)
(-0.00038392 -0.000177938 0)
(-0.000309664 -0.00026579 0)
(-0.000208862 -0.000340066 0)
(-8.67134e-05 -0.000396245 0)
(5.02729e-05 -0.000430918 0)
(0.000194614 -0.000441869 0)
(0.000338322 -0.000428169 0)
(0.000473312 -0.0003902 0)
(0.000591844 -0.000329642 0)
(0.000686961 -0.000249449 0)
(0.000752891 -0.000153779 0)
(0.00078544 -4.79103e-05 0)
(0.000782321 6.18838e-05 0)
(0.00074345 0.000168468 0)
(0.000671166 0.00026395 0)
(0.0005704 0.000339777 0)
(0.000448768 0.000386902 0)
(0.000316659 0.000396041 0)
(0.000187045 0.000358115 0)
(7.65711e-05 0.000264922 0)
(6.63877e-06 0.000110211 0)
(-5.00165e-06 0.000117838 0)
(-5.59331e-05 0.000267375 0)
(-0.000133875 0.000343468 0)
(-0.000221265 0.000357443 0)
(-0.000304375 0.000320639 0)
(-0.000372792 0.000244418 0)
(-0.000418528 0.000139942 0)
(-0.000436149 1.79729e-05 0)
(-0.000422679 -0.000111312 0)
(-0.000377502 -0.000238469 0)
(-0.000302197 -0.000354992 0)
(-0.000200307 -0.000453518 0)
(-7.70583e-05 -0.000528003 0)
(6.10057e-05 -0.000573883 0)
(0.000206354 -0.000588189 0)
(0.000350952 -0.000569682 0)
(0.000486661 -0.000518874 0)
(0.000605695 -0.000438018 0)
(0.000701053 -0.000331068 0)
(0.000766934 -0.000203589 0)
(0.000799123 -6.26257e-05 0)
(0.000795324 8.34611e-05 0)
(0.000755452 0.000225195 0)
(0.000681852 0.000352145 0)
(0.000579467 0.000453092 0)
(0.00045593 0.000516239 0)
(0.00032169 0.000529476 0)
(0.000189875 0.000480722 0)
(7.74959e-05 0.000358317 0)
(6.58748e-06 0.000151293 0)
(-4.60265e-06 0.000146741 0)
(-5.26671e-05 0.000331599 0)
(-0.000126701 0.00042488 0)
(-0.000209873 0.000441331 0)
(-0.000288971 0.000395179 0)
(-0.000353952 0.000300442 0)
(-0.000397126 0.000170822 0)
(-0.000413274 1.95523e-05 0)
(-0.000399546 -0.000140803 0)
(-0.000355361 -0.000298548 0)
(-0.000282248 -0.000443118 0)
(-0.000183625 -0.000565348 0)
(-6.45296e-05 -0.0006577 0)
(6.87317e-05 -0.000714472 0)
(0.0002089 -0.000731959 0)
(0.000348234 -0.000708615 0)
(0.000478889 -0.000645077 0)
(0.000593359 -0.000544162 0)
(0.000684893 -0.000410809 0)
(0.000747899 -0.000251962 0)
(0.000778309 -7.64043e-05 0)
(0.000773906 0.000105458 0)
(0.000734603 0.000281849 0)
(0.000662659 0.000439848 0)
(0.000562843 0.000565608 0)
(0.000442541 0.000644603 0)
(0.000311896 0.000661882 0)
(0.000183721 0.0006023 0)
(7.46481e-05 0.000450695 0)
(6.21033e-06 0.000191645 0)
(-4.08877e-06 0.000173345 0)
(-4.77335e-05 0.000391192 0)
(-0.00011538 0.000500709 0)
(-0.000191562 0.000519575 0)
(-0.000264056 0.000464667 0)
(-0.000323516 0.000352501 0)
(-0.000362794 0.000199191 0)
(-0.000377047 2.03133e-05 0)
(-0.000363634 -0.00016931 0)
(-0.000322029 -0.000355856 0)
(-0.000253661 -0.00052682 0)
(-0.00016171 -0.000671335 0)
(-5.08551e-05 -0.000780456 0)
(7.30416e-05 -0.000847407 0)
(0.000203244 -0.000867789 0)
(0.000332567 -0.000839764 0)
(0.000453725 -0.000764087 0)
(0.000559748 -0.000644106 0)
(0.000644363 -0.000485688 0)
(0.00070237 -0.00029708 0)
(0.000729984 -8.8704e-05 0)
(0.000725137 0.000127099 0)
(0.000687746 0.000336375 0)
(0.000619913 0.000523839 0)
(0.000526093 0.000673138 0)
(0.000413203 0.000767128 0)
(0.000290771 0.000788109 0)
(0.000170862 0.000717982 0)
(6.9104e-05 0.000538273 0)
(5.63528e-06 0.00022962 0)
(-3.5148e-06 0.000196976 0)
(-4.17257e-05 0.000444488 0)
(-0.00010127 0.000568767 0)
(-0.000168485 0.00058991 0)
(-0.000232486 0.000527113 0)
(-0.000284899 0.000399145 0)
(-0.000319316 0.000224317 0)
(-0.000331395 2.03519e-05 0)
(-0.000318779 -0.000195864 0)
(-0.000281006 -0.000408566 0)
(-0.000219365 -0.000603484 0)
(-0.000136713 -0.000768202 0)
(-3.72424e-05 -0.000892496 0)
(7.3797e-05 -0.000968615 0)
(0.00019038 -0.00099153 0)
(0.000306077 -0.000959136 0)
(0.000414369 -0.000872295 0)
(0.000509015 -0.000734834 0)
(0.000584397 -0.000553464 0)
(0.000635851 -0.000337614 0)
(0.000659978 -9.92019e-05 0)
(0.000654919 0.000147667 0)
(0.000620594 0.000387045 0)
(0.000558899 0.00060147 0)
(0.000473858 0.00077228 0)
(0.000371731 0.000879902 0)
(0.00026116 0.000904087 0)
(0.000153095 0.000824015 0)
(6.16596e-05 0.000618245 0)
(4.94189e-06 0.000264065 0)
(-2.91183e-06 0.000217212 0)
(-3.5054e-05 0.000490384 0)
(-8.53617e-05 0.000627552 0)
(-0.000142261 0.000650743 0)
(-0.000196457 0.0005811 0)
(-0.000240755 0.000439337 0)
(-0.000269642 0.000245694 0)
(-0.000279385 1.97815e-05 0)
(-0.000267963 -0.000219694 0)
(-0.000234992 -0.000455265 0)
(-0.000181591 -0.000671107 0)
(-0.000110225 -0.000853452 0)
(-2.45015e-05 -0.000990956 0)
(7.10637e-05 -0.00107502 0)
(0.000171299 -0.00110006 0)
(0.000270681 -0.00106373 0)
(0.000363612 -0.000967005 0)
(0.000444728 -0.000814111 0)
(0.000509196 -0.0006125 0)
(0.000553001 -0.000372638 0)
(0.00057321 -0.000107752 0)
(0.000568213 0.000166502 0)
(0.000537939 0.000432413 0)
(0.00048403 0.000670592 0)
(0.000409982 0.000860318 0)
(0.000321242 0.000979851 0)
(0.000225339 0.00100668 0)
(0.00013181 0.000917577 0)
(5.28979e-05 0.000688564 0)
(4.17921e-06 0.000294179 0)
(-2.29832e-06 0.000233808 0)
(-2.80042e-05 0.00052819 0)
(-6.83774e-05 0.000676088 0)
(-0.000114103 0.00070101 0)
(-0.000157643 0.000625668 0)
(-0.00019313 0.000472381 0)
(-0.000216065 0.000263001 0)
(-0.000223402 1.8727e-05 0)
(-0.000213503 -0.000240201 0)
(-0.000186067 -0.000494882 0)
(-0.000142023 -0.000728194 0)
(-8.33952e-05 -0.000925233 0)
(-1.31367e-05 -0.00107372 0)
(6.50632e-05 -0.00116435 0)
(0.000146988 -0.00119108 0)
(0.000228132 -0.00115138 0)
(0.000303927 -0.00104627 0)
(0.000369995 -0.000880342 0)
(0.000422388 -0.000661659 0)
(0.000457815 -0.00040155 0)
(0.00047387 -0.00011434 0)
(0.000469225 0.000183008 0)
(0.000443817 0.000471296 0)
(0.000398995 0.000729496 0)
(0.000337645 0.000935134 0)
(0.000264277 0.00106462 0)
(0.000185126 0.00109352 0)
(0.000108086 0.0009966 0)
(4.32485e-05 0.000747776 0)
(3.37704e-06 0.000319415 0)
(-1.68572e-06 0.000246638 0)
(-2.07782e-05 0.000557517 0)
(-5.08446e-05 0.000713797 0)
(-8.49187e-05 0.000740068 0)
(-0.000117318 0.000660232 0)
(-0.000143601 0.000497857 0)
(-0.000160362 0.000276066 0)
(-0.000165299 1.73196e-05 0)
(-0.000157188 -0.000256927 0)
(-0.000135819 -0.000526641 0)
(-0.000101917 -0.000773674 0)
(-5.70317e-05 -0.000982231 0)
(-3.41335e-06 -0.0011393 0)
(5.61379e-05 -0.00123503 0)
(0.000118429 -0.00126301 0)
(0.000180047 -0.00122056 0)
(0.000237531 -0.00110875 0)
(0.00028756 -0.000932454 0)
(0.000327134 -0.000700199 0)
(0.000353748 -0.000424 0)
(0.00036556 -0.000119044 0)
(0.000361546 0.00019667 0)
(0.000341647 0.000502757 0)
(0.000306889 0.000776879 0)
(0.000259486 0.000995149 0)
(0.000202911 0.0011325 0)
(0.000141973 0.00116293 0)
(8.27602e-05 0.00105963 0)
(3.30327e-05 0.000794885 0)
(2.55304e-06 0.000339412 0)
(-1.08125e-06 0.00025566 0)
(-1.3521e-05 0.000578197 0)
(-3.31522e-05 0.000740405 0)
(-5.53881e-05 0.000767595 0)
(-7.64494e-05 0.000684496 0)
(-9.33758e-05 0.000515565 0)
(-0.0001039 0.000284841 0)
(-0.000106502 1.56953e-05 0)
(-0.000100388 -0.000269537 0)
(-8.5448e-05 -0.000550006 0)
(-6.21898e-05 -0.000806833 0)
(-3.16707e-05 -0.00102359 0)
(4.59203e-06 -0.00118674 0)
(4.4724e-05 -0.00128604 0)
(8.65976e-05 -0.00131484 0)
(0.000127937 -0.00127033 0)
(0.000166432 -0.00115363 0)
(0.000199864 -0.000969796 0)
(0.000226222 -0.000727696 0)
(0.000243819 -0.000439823 0)
(0.000251403 -0.000121986 0)
(0.000248265 0.000207073 0)
(0.000234347 0.000526105 0)
(0.000210328 0.00081181 0)
(0.000177707 0.00103926 0)
(0.000138852 0.0011823 0)
(9.70569e-05 0.00121379 0)
(5.64987e-05 0.00110574 0)
(2.24981e-05 0.000829269 0)
(1.71855e-06 0.00035396 0)
(-4.89795e-07 0.000260894 0)
(-6.33822e-06 0.000590226 0)
(-1.55882e-05 0.000755871 0)
(-2.60218e-05 0.000783526 0)
(-3.57711e-05 0.000698402 0)
(-4.33752e-05 0.000525487 0)
(-4.77263e-05 0.000289374 0)
(-4.80987e-05 1.39909e-05 0)
(-4.414e-05 -0.000277796 0)
(-3.58399e-05 -0.000564649 0)
(-2.34859e-05 -0.000827259 0)
(-7.63045e-06 -0.00104882 0)
(1.09533e-05 -0.00121551 0)
(3.13325e-05 -0.00131684 0)
(5.24609e-05 -0.00134603 0)
(7.32183e-05 -0.0013002 0)
(9.24659e-05 -0.00118049 0)
(0.000109105 -0.000992061 0)
(0.000122131 -0.00074397 0)
(0.000130689 -0.000448993 0)
(0.000134128 -0.000123301 0)
(0.00013206 0.000213916 0)
(0.000124423 0.000540884 0)
(0.00011154 0.000833708 0)
(9.41641e-05 0.00106681 0)
(7.35223e-05 0.00121334 0)
(5.13433e-05 0.00124545 0)
(2.98391e-05 0.0011344 0)
(1.18444e-05 0.000850612 0)
(8.84312e-07 0.000362966 0)
(8.52398e-08 0.000262405 0)
(6.9293e-07 0.000593724 0)
(1.63402e-06 0.000760324 0)
(2.79749e-06 0.000787988 0)
(4.16206e-06 0.000702071 0)
(5.6993e-06 0.000527742 0)
(7.36186e-06 0.00028979 0)
(9.08468e-06 1.2337e-05 0)
(1.07826e-05 -0.000281567 0)
(1.23659e-05 -0.000570426 0)
(1.37679e-05 -0.000834801 0)
(1.49433e-05 -0.00105779 0)
(1.58636e-05 -0.00122547 0)
(1.65329e-05 -0.0013273 0)
(1.69793e-05 -0.00135648 0)
(1.72354e-05 -0.00131009 0)
(1.73301e-05 -0.00118928 0)
(1.72814e-05 -0.000999226 0)
(1.70888e-05 -0.000749046 0)
(1.67274e-05 -0.000451584 0)
(1.61468e-05 -0.000123118 0)
(1.52796e-05 0.000217018 0)
(1.40594e-05 0.000546867 0)
(1.24448e-05 0.00084231 0)
(1.04418e-05 0.00107752 0)
(8.12255e-06 0.00122536 0)
(5.63965e-06 0.00125768 0)
(3.2282e-06 0.00114548 0)
(1.23847e-06 0.000858848 0)
(6.28476e-08 0.000366431 0)
(6.42013e-07 0.00026029 0)
(7.51753e-06 0.0005889 0)
(1.83575e-05 0.00075403 0)
(3.07824e-05 0.000781257 0)
(4.29283e-05 0.000695762 0)
(5.33119e-05 0.000522552 0)
(6.07561e-05 0.00028626 0)
(6.44239e-05 1.08476e-05 0)
(6.38072e-05 -0.0002808 0)
(5.87205e-05 -0.000567354 0)
(4.93132e-05 -0.000829544 0)
(3.60409e-05 -0.00105062 0)
(1.96085e-05 -0.00121681 0)
(9.36627e-07 -0.00131767 0)
(-1.88972e-05 -0.00134644 0)
(-3.87315e-05 -0.00130025 0)
(-5.73926e-05 -0.00118024 0)
(-7.37678e-05 -0.00099152 0)
(-8.68739e-05 -0.000743118 0)
(-9.59219e-05 -0.000447753 0)
(-0.000100373 -0.000121554 0)
(-9.99796e-05 0.000216304 0)
(-9.48117e-05 0.000544019 0)
(-8.52676e-05 0.000837624 0)
(-7.2079e-05 0.00107143 0)
(-5.63109e-05 0.00121843 0)
(-3.93654e-05 0.00125062 0)
(-2.29566e-05 0.0011391 0)
(-9.18154e-06 0.0008541 0)
(-7.35581e-07 0.000364417 0)
(1.17986e-06 0.00025467 0)
(1.40953e-05 0.000576032 0)
(3.44625e-05 0.000737353 0)
(5.77102e-05 0.000763726 0)
(8.01975e-05 0.000679845 0)
(9.90426e-05 0.000510221 0)
(0.000111983 0.000278991 0)
(0.00011744 9.61006e-06 0)
(0.000114507 -0.000275538 0)
(0.000102912 -0.000555612 0)
(8.30141e-05 -0.000811791 0)
(5.57505e-05 -0.00102774 0)
(2.25382e-05 -0.00119002 0)
(-1.48182e-05 -0.00128847 0)
(-5.42299e-05 -0.00131648 0)
(-9.34503e-05 -0.00127126 0)
(-0.000130203 -0.0011539 0)
(-0.000162321 -0.000969399 0)
(-0.000187873 -0.000726545 0)
(-0.000205284 -0.000437738 0)
(-0.000213447 -0.000118714 0)
(-0.000211807 0.000211802 0)
(-0.000200437 0.000532498 0)
(-0.000180074 0.000819916 0)
(-0.000152159 0.0010489 0)
(-0.000118854 0.00119297 0)
(-8.30627e-05 0.00122467 0)
(-4.83867e-05 0.00111564 0)
(-1.9304e-05 0.000836643 0)
(-1.50965e-06 0.000357031 0)
(1.69855e-06 0.000245681 0)
(2.03929e-05 0.00055545 0)
(4.98478e-05 0.000710738 0)
(8.33924e-05 0.000735877 0)
(0.000115691 0.000654771 0)
(0.000142538 0.000491112 0)
(0.000160647 0.000268206 0)
(0.000167742 8.6807e-06 0)
(0.000162543 -0.000265908 0)
(0.000144712 -0.000535511 0)
(0.000114807 -0.000782032 0)
(7.4219e-05 -0.000989784 0)
(2.50429e-05 -0.00114587 0)
(-3.00758e-05 -0.00124054 0)
(-8.80878e-05 -0.00126745 0)
(-0.000145721 -0.00122392 0)
(-0.000199659 -0.00111101 0)
(-0.000246735 -0.000933489 0)
(-0.00028412 -0.000699791 0)
(-0.000309493 -0.000421814 0)
(-0.000321205 -0.000114666 0)
(-0.00031841 0.000203657 0)
(-0.000301171 0.000512645 0)
(-0.000270545 0.0007897 0)
(-0.000228636 0.00101056 0)
(-0.00017864 0.00114968 0)
(-0.000124882 0.00118053 0)
(-7.27591e-05 0.0010757 0)
(-2.90322e-05 0.000806904 0)
(-2.26526e-06 0.000344443 0)
(2.19784e-06 0.000233475 0)
(2.63782e-05 0.000527531 0)
(6.44143e-05 0.0006747 0)
(0.000107645 0.000698274 0)
(0.000149137 0.000621069 0)
(0.000183455 0.000465641 0)
(0.000206371 0.000254152 0)
(0.000214961 8.08727e-06 0)
(0.000207606 -0.000252117 0)
(0.000183916 -0.000507491 0)
(0.000144647 -0.000740928 0)
(9.16111e-05 -0.000937601 0)
(2.75278e-05 -0.00108534 0)
(-4.41718e-05 -0.00117495 0)
(-0.000119542 -0.00120045 0)
(-0.000194359 -0.0011593 0)
(-0.00026434 -0.00105251 0)
(-0.000325395 -0.000884559 0)
(-0.000373858 -0.000663406 0)
(-0.000406716 -0.000400271 0)
(-0.000421812 -0.000109417 0)
(-0.000418019 0.000192145 0)
(-0.00039539 0.000485006 0)
(-0.000355264 0.000747751 0)
(-0.000300354 0.000957363 0)
(-0.000234803 0.00108959 0)
(-0.000164253 0.0011192 0)
(-9.57713e-05 0.00102015 0)
(-3.82627e-05 0.000765488 0)
(-3.0007e-06 0.000326904 0)
(2.67727e-06 0.000218217 0)
(3.20113e-05 0.000492701 0)
(7.80426e-05 0.000629832 0)
(0.000130252 0.00065157 0)
(0.000180223 0.000579348 0)
(0.000221401 0.000434284 0)
(0.000248717 0.000237093 0)
(0.000258672 7.83106e-06 0)
(0.000249335 -0.000234453 0)
(0.000220278 -0.000472129 0)
(0.000172453 -0.000689316 0)
(0.000108058 -0.00087226 0)
(3.0377e-05 -0.00100968 0)
(-5.64491e-05 -0.00109305 0)
(-0.000147659 -0.00111683 0)
(-0.000238164 -0.0010787 0)
(-0.000322805 -0.000979546 0)
(-0.000396655 -0.000823546 0)
(-0.000455291 -0.000618046 0)
(-0.000495069 -0.000373437 0)
(-0.000513367 -0.000102943 0)
(-0.000508798 0.000177652 0)
(-0.000481393 0.000450304 0)
(-0.000432737 0.000695077 0)
(-0.000366078 0.000890517 0)
(-0.000286409 0.00101399 0)
(-0.000200551 0.00104196 0)
(-0.000117083 0.000950081 0)
(-4.68637e-05 0.000713172 0)
(-3.69691e-06 0.000304718 0)
(3.13595e-06 0.000200096 0)
(3.72346e-05 0.000451455 0)
(9.05636e-05 0.000576832 0)
(0.000150909 0.000596534 0)
(0.000208523 0.000530313 0)
(0.000255854 0.000397577 0)
(0.000287105 0.000217313 0)
(0.000298294 7.88034e-06 0)
(0.000287223 -0.000213305 0)
(0.000253423 -0.000430163 0)
(0.000198029 -0.000628255 0)
(0.000123597 -0.000795083 0)
(3.39051e-05 -0.000920402 0)
(-6.62868e-05 -0.000996475 0)
(-0.000171504 -0.00101828 0)
(-0.000275897 -0.0009837 0)
(-0.000373539 -0.000893554 0)
(-0.000458766 -0.000751613 0)
(-0.000526492 -0.000564534 0)
(-0.000572514 -0.000341741 0)
(-0.000593798 -9.52373e-05 0)
(-0.000588721 0.00016062 0)
(-0.000557284 0.000409393 0)
(-0.000501275 0.000632885 0)
(-0.0004244 0.000811488 0)
(-0.000332373 0.000924499 0)
(-0.000233036 0.000950373 0)
(-0.000136275 0.000866838 0)
(-5.46732e-05 0.000650881 0)
(-4.33826e-06 0.000278209 0)
(3.57068e-06 0.000179334 0)
(4.19538e-05 0.000404391 0)
(0.000101718 0.000516541 0)
(0.000169162 0.000534088 0)
(0.000233406 0.000474803 0)
(0.000286053 0.000356135 0)
(0.0003207 0.000195111 0)
(0.000332979 8.16002e-06 0)
(0.00032049 -0.000189159 0)
(0.000282728 -0.000382503 0)
(0.00022098 -0.000559035 0)
(0.000138105 -0.000707676 0)
(3.83102e-05 -0.000819349 0)
(-7.31285e-05 -0.0008872 0)
(-0.000190144 -0.000906781 0)
(-0.000306257 -0.000876217 0)
(-0.0004149 -0.000796229 0)
(-0.000509795 -0.000670145 0)
(-0.000585297 -0.000503852 0)
(-0.000636736 -0.000305688 0)
(-0.000660726 -8.62956e-05 0)
(-0.000655438 0.000141577 0)
(-0.000620839 0.000363298 0)
(-0.000558873 0.000562631 0)
(-0.000473612 0.000722055 0)
(-0.000371354 0.00082305 0)
(-0.000260767 0.000846352 0)
(-0.000152802 0.000772083 0)
(-6.14971e-05 0.000579768 0)
(-4.93351e-06 0.00024779 0)
(3.97105e-06 0.000156219 0)
(4.60056e-05 0.000352269 0)
(0.000111094 0.000450005 0)
(0.000184317 0.000465359 0)
(0.000253923 0.000413837 0)
(0.000310868 0.000310699 0)
(0.000348273 0.000170831 0)
(0.000361484 8.55519e-06 0)
(0.000347964 -0.000162612 0)
(0.0003072 -0.00033023 0)
(0.000240585 -0.000483194 0)
(0.000151215 -0.000611954 0)
(4.36294e-05 -0.000708706 0)
(-7.6495e-05 -0.000767561 0)
(-0.000202638 -0.000784694 0)
(-0.000327842 -0.00075849 0)
(-0.000445054 -0.000689564 0)
(-0.000547526 -0.000580765 0)
(-0.000629187 -0.000437143 0)
(-0.000685004 -0.000265864 0)
(-0.000711312 -7.60894e-05 0)
(-0.000706117 0.000121178 0)
(-0.000669345 0.000313273 0)
(-0.00060305 0.000486098 0)
(-0.000511568 0.000624407 0)
(-0.000401629 0.000712069 0)
(-0.000282503 0.000732322 0)
(-0.000165924 0.000667946 0)
(-6.70537e-05 0.000501332 0)
(-5.47528e-06 0.000214067 0)
(4.31271e-06 0.000131145 0)
(4.91116e-05 0.000296102 0)
(0.000118043 0.000378579 0)
(0.000195339 0.000391778 0)
(0.000268688 0.000348686 0)
(0.00032865 0.000262197 0)
(0.000368037 0.00014491 0)
(0.000382002 8.92279e-06 0)
(0.000367931 -0.000134408 0)
(0.000325328 -0.000274675 0)
(0.000255667 -0.000402611 0)
(0.00016219 -0.000510268 0)
(4.96498e-05 -0.000591175 0)
(-7.60228e-05 -0.000640459 0)
(-0.000208021 -0.000654956 0)
(-0.00033909 -0.000633326 0)
(-0.000461876 -0.000576071 0)
(-0.000569338 -0.000485542 0)
(-0.000655135 -0.000365908 0)
(-0.000713996 -0.000223099 0)
(-0.000742073 -6.47193e-05 0)
(-0.00073725 0.000100073 0)
(-0.000699415 0.00026069 0)
(-0.000630675 0.000405307 0)
(-0.000535524 0.000521082 0)
(-0.00042095 0.000594414 0)
(-0.000296587 0.00061119 0)
(-0.000174629 0.000557025 0)
(-7.0899e-05 0.000417439 0)
(-5.90178e-06 0.000177775 0)
(4.55085e-06 0.000104681 0)
(5.08248e-05 0.000237289 0)
(0.000121584 0.000304089 0)
(0.000200718 0.000315206 0)
(0.000275733 0.000280966 0)
(0.000337069 0.000211781 0)
(0.000377439 0.000117886 0)
(0.000391924 9.08237e-06 0)
(0.00037789 -0.000105486 0)
(0.000334875 -0.000217506 0)
(0.0002644 -0.000319608 0)
(0.000169764 -0.000405496 0)
(5.5784e-05 -0.000470055 0)
(-7.15396e-05 -0.000509446 0)
(-0.000205324 -0.000521174 0)
(-0.000338238 -0.000504184 0)
(-0.000462854 -0.000458865 0)
(-0.000572053 -0.000387059 0)
(-0.000659415 -0.000292041 0)
(-0.00071959 -0.000178484 0)
(-0.000748656 -5.23951e-05 0)
(-0.000744434 7.89572e-05 0)
(-0.000706774 0.000207129 0)
(-0.000637776 0.00032263 0)
(-0.000541965 0.000415105 0)
(-0.000426405 0.000473544 0)
(-0.000300824 0.00048654 0)
(-0.000177522 0.000442611 0)
(-7.24001e-05 0.000330569 0)
(-6.1434e-06 0.000139891 0)
(4.61085e-06 7.7685e-05 0)
(5.0472e-05 0.000177792 0)
(0.000120292 0.000228987 0)
(0.00019832 0.000238084 0)
(0.000272309 0.000212745 0)
(0.000332898 0.000160919 0)
(0.000372937 9.04595e-05 0)
(0.000387599 8.85653e-06 0)
(0.000374312 -7.69604e-05 0)
(0.00033265 -0.000160758 0)
(0.000264133 -0.00023706 0)
(0.000172006 -0.00030121 0)
(6.09764e-05 -0.000349437 0)
(-6.31116e-05 -0.000378917 0)
(-0.000193563 -0.000387818 0)
(-0.000323252 -0.00037536 0)
(-0.000444956 -0.000341822 0)
(-0.000551751 -0.00028855 0)
(-0.000637374 -0.000217943 0)
(-0.000696597 -0.000133434 0)
(-0.00072556 -3.94547e-05 0)
(-0.000722097 5.8604e-05 0)
(-0.000686013 0.000154436 0)
(-0.000619326 0.000240893 0)
(-0.000526445 0.000310112 0)
(-0.000414283 0.000353668 0)
(-0.000292373 0.000362819 0)
(-0.000172707 0.000328912 0)
(-7.06633e-05 0.000244024 0)
(-6.11814e-06 0.000101872 0)
(4.35641e-06 5.14879e-05 0)
(4.7081e-05 0.000120372 0)
(0.000112234 0.000156568 0)
(0.000185281 0.000163634 0)
(0.000254755 0.000146756 0)
(0.00031182 0.000111563 0)
(0.000349749 6.36037e-05 0)
(0.000364029 8.10676e-06 0)
(0.000352283 -5.01522e-05 0)
(0.000314141 -0.000106935 0)
(0.000251053 -0.000158559 0)
(0.000166058 -0.000201922 0)
(6.35271e-05 -0.00023452 0)
(-5.11307e-05 -0.000254488 0)
(-0.000171743 -0.000260613 0)
(-0.00029174 -0.000252373 0)
(-0.000404467 -0.00022995 0)
(-0.000503531 -0.000194225 0)
(-0.000583139 -0.00014678 0)
(-0.000638431 -8.98857e-05 0)
(-0.000665794 -2.64861e-05 0)
(-0.000663164 3.9813e-05 0)
(-0.000630301 0.000104754 0)
(-0.000569031 0.000163454 0)
(-0.000483444 0.000210464 0)
(-0.00038002 0.000239865 0)
(-0.000267727 0.000245458 0)
(-0.000157785 0.000221201 0)
(-6.44355e-05 0.000162044 0)
(-5.62691e-06 6.57371e-05 0)
(3.58016e-06 2.80172e-05 0)
(3.93899e-05 6.87004e-05 0)
(9.50342e-05 9.10013e-05 0)
(0.000158059 9.58724e-05 0)
(0.00021838 8.64236e-05 0)
(0.000268159 6.61785e-05 0)
(0.000301482 3.85498e-05 0)
(0.00031446 6.65521e-06 0)
(0.00030509 -2.6725e-05 0)
(0.00027311 -5.91686e-05 0)
(0.000219808 -8.86e-05 0)
(0.000147812 -0.000113286 0)
(6.08633e-05 -0.000131838 0)
(-3.64376e-05 -0.000143227 0)
(-0.000138863 -0.000146784 0)
(-0.000240851 -0.000142215 0)
(-0.00033677 -0.000129618 0)
(-0.000421202 -0.000109476 0)
(-0.000489218 -8.26569e-05 0)
(-0.000536659 -5.04145e-05 0)
(-0.000560399 -1.43837e-05 0)
(-0.000558609 2.34184e-05 0)
(-0.000531 6.05803e-05 0)
(-0.000479063 9.42896e-05 0)
(-0.00040628 0.00012134 0)
(-0.000318274 0.000138156 0)
(-0.000222922 0.000140894 0)
(-0.000130143 0.000125818 0)
(-5.23097e-05 9.00209e-05 0)
(-4.40825e-06 3.42469e-05 0)
(1.92872e-06 1.04069e-05 0)
(2.61613e-05 2.82019e-05 0)
(6.62693e-05 3.84543e-05 0)
(0.000112683 4.09501e-05 0)
(0.000157509 3.72467e-05 0)
(0.000194678 2.90412e-05 0)
(0.000219748 1.78795e-05 0)
(0.000229889 5.08601e-06 0)
(0.000223717 -8.21422e-06 0)
(0.000201121 -2.10729e-05 0)
(0.000163099 -3.26924e-05 0)
(0.000111589 -4.24142e-05 0)
(4.93036e-05 -4.97148e-05 0)
(-2.04465e-05 -5.4209e-05 0)
(-9.39243e-05 -5.56456e-05 0)
(-0.000167158 -5.39127e-05 0)
(-0.000236124 -4.90442e-05 0)
(-0.000296944 -4.12184e-05 0)
(-0.000346075 -3.07588e-05 0)
(-0.000380501 -1.81345e-05 0)
(-0.000397921 -3.96097e-06 0)
(-0.000396935 1.09949e-05 0)
(-0.000377235 2.57992e-05 0)
(-0.000339801 3.93338e-05 0)
(-0.0002871 5.02768e-05 0)
(-0.000223251 5.70805e-05 0)
(-0.000154178 5.79748e-05 0)
(-8.7621e-05 5.1149e-05 0)
(-3.32041e-05 3.51285e-05 0)
(-2.106e-06 1.1453e-05 0)
(-2.51308e-07 1.01891e-06 0)
(8.20869e-06 3.45098e-06 0)
(2.52059e-05 4.72122e-06 0)
(4.55986e-05 5.03091e-06 0)
(6.54676e-05 4.6909e-06 0)
(8.19805e-05 3.94223e-06 0)
(9.31911e-05 2.96739e-06 0)
(9.79348e-05 1.89309e-06 0)
(9.5693e-05 8.10893e-07 0)
(8.64863e-05 -2.1138e-07 0)
(7.07847e-05 -1.12018e-06 0)
(4.94322e-05 -1.87272e-06 0)
(2.35774e-05 -2.43538e-06 0)
(-5.39876e-06 -2.78462e-06 0)
(-3.59503e-05 -2.9046e-06 0)
(-6.64373e-05 -2.78739e-06 0)
(-9.51984e-05 -2.43453e-06 0)
(-0.000120627 -1.85645e-06 0)
(-0.000141247 -1.0728e-06 0)
(-0.000155783 -1.12749e-07 0)
(-0.000163239 9.8491e-07 0)
(-0.000162971 2.17072e-06 0)
(-0.000154776 3.38007e-06 0)
(-0.00013898 4.52741e-06 0)
(-0.00011655 5.4984e-06 0)
(-8.92111e-05 6.13538e-06 0)
(-5.95719e-05 6.21937e-06 0)
(-3.13078e-05 5.48175e-06 0)
(-9.22466e-06 3.57752e-06 0)
(7.5343e-07 5.23148e-07 0)
)
;

boundaryField
{
    floor
    {
        type            noSlip;
    }
    ceiling
    {
        type            noSlip;
    }
    fixedWalls
    {
        type            noSlip;
    }
    frontAndBack
    {
        type            empty;
    }
}


// ************************************************************************* //
