/*--------------------------------*- C++ -*----------------------------------*\
| =========                 |                                                 |
| \\      /  F ield         | OpenFOAM: The Open Source CFD Toolbox           |
|  \\    /   O peration     | Version:  2412                                  |
|   \\  /    A nd           | Website:  www.openfoam.com                      |
|    \\/     M anipulation  |                                                 |
\*---------------------------------------------------------------------------*/
FoamFile
{
    version     2.0;
    format      ascii;
    arch        "LSB;label=32;scalar=64";
    class       volScalarField;
    location    "900";
    object      p;
}
// * * * * * * * * * * * * * * * * * * * * * * * * * * * * * * * * * * * * * //

dimensions      [0 2 -2 0 0 0 0];

internalField   nonuniform List<scalar> 
40000
(
0
-1.46448e-06
-3.02902e-06
-4.11462e-06
-4.37888e-06
-3.68442e-06
-2.00807e-06
6.04815e-07
4.06934e-06
8.28389e-06
1.31368e-05
1.8517e-05
2.43182e-05
3.04402e-05
3.67938e-05
4.32949e-05
4.98729e-05
5.64618e-05
6.30086e-05
6.94668e-05
7.57986e-05
8.19718e-05
8.79611e-05
9.37478e-05
9.93164e-05
0.00010466
0.000109769
0.000114644
0.000119282
0.000123688
0.000127864
0.000131817
0.000135554
0.000139082
0.00014241
0.000145546
0.0001485
0.00015128
0.000153897
0.000156357
0.000158672
0.000160849
0.000162897
0.000164822
0.000166633
0.000168337
0.00016994
0.000171449
0.00017287
0.000174209
0.00017547
0.000176658
0.000177779
0.000178837
0.000179834
0.000180776
0.000181666
0.000182506
0.000183301
0.000184051
0.000184761
0.000185433
0.000186068
0.000186669
0.000187238
0.000187776
0.000188285
0.000188767
0.000189223
0.000189654
0.000190062
0.000190448
0.000190812
0.000191156
0.00019148
0.000191786
0.000192074
0.000192345
0.000192599
0.000192838
0.000193061
0.00019327
0.000193464
0.000193644
0.000193811
0.000193965
0.000194106
0.000194235
0.000194351
0.000194456
0.000194549
0.000194631
0.000194701
0.00019476
0.000194808
0.000194846
0.000194872
0.000194887
0.000194892
0.000194887
0.00019487
0.000194843
0.000194805
0.000194756
0.000194697
0.000194626
0.000194544
0.000194451
0.000194346
0.00019423
0.000194102
0.000193962
0.00019381
0.000193644
0.000193466
0.000193275
0.000193069
0.000192849
0.000192615
0.000192365
0.0001921
0.000191819
0.00019152
0.000191204
0.00019087
0.000190516
0.000190142
0.000189747
0.000189331
0.000188891
0.000188427
0.000187937
0.000187421
0.000186876
0.000186302
0.000185696
0.000185057
0.000184382
0.00018367
0.000182919
0.000182125
0.000181287
0.000180401
0.000179464
0.000178473
0.000177425
0.000176316
0.000175142
0.000173898
0.00017258
0.000171182
0.000169699
0.000168125
0.000166454
0.000164681
0.000162797
0.000160795
0.000158667
0.000156407
0.000154004
0.00015145
0.000148735
0.000145851
0.000142786
0.000139532
0.000136078
0.000132415
0.000128533
0.000124424
0.000120078
0.000115489
0.000110651
0.000105559
0.000100212
9.46087e-05
8.87536e-05
8.26538e-05
7.63204e-05
6.97693e-05
6.30222e-05
5.6107e-05
4.90586e-05
4.19197e-05
3.47411e-05
2.75831e-05
2.05151e-05
1.36167e-05
6.97731e-06
6.96476e-07
-5.11759e-06
-1.03496e-05
-1.48798e-05
-1.85894e-05
-2.13676e-05
-2.31263e-05
-2.38193e-05
-2.34756e-05
-2.22507e-05
-2.05234e-05
-1.89171e-05
-0.000181491
-0.000183017
-0.000184282
-0.000185012
-0.000185012
-0.00018418
-0.000182495
-0.000179987
-0.000176719
-0.000172771
-0.000168234
-0.000163201
-0.000157764
-0.000152012
-0.000146024
-0.000139877
-0.000133635
-0.00012736
-0.000121103
-0.000114909
-0.000108814
-0.000102851
-9.70458e-05
-9.14165e-05
-8.59818e-05
-8.07507e-05
-7.57316e-05
-7.09284e-05
-6.63438e-05
-6.19771e-05
-5.78263e-05
-5.38869e-05
-5.0153e-05
-4.66189e-05
-4.32781e-05
-4.01225e-05
-3.71446e-05
-3.43354e-05
-3.16878e-05
-2.91929e-05
-2.68429e-05
-2.46307e-05
-2.25464e-05
-2.05846e-05
-1.87378e-05
-1.6998e-05
-1.53601e-05
-1.38179e-05
-1.23644e-05
-1.09945e-05
-9.70372e-06
-8.48669e-06
-7.33873e-06
-6.2557e-06
-5.23359e-06
-4.26868e-06
-3.35761e-06
-2.49713e-06
-1.68395e-06
-9.15194e-07
-1.88421e-07
4.98712e-07
1.14851e-06
1.76312e-06
2.34451e-06
2.89451e-06
3.41485e-06
3.9071e-06
4.37268e-06
4.81289e-06
5.22899e-06
5.62221e-06
5.99359e-06
6.34407e-06
6.67464e-06
6.98622e-06
7.27965e-06
7.55554e-06
7.8145e-06
8.05726e-06
8.28449e-06
8.49665e-06
8.69403e-06
8.8773e-06
9.04715e-06
9.20384e-06
9.34743e-06
9.4781e-06
9.59638e-06
9.70275e-06
9.79736e-06
9.88022e-06
9.95154e-06
1.00117e-05
1.00608e-05
1.00987e-05
1.01255e-05
1.01412e-05
1.01462e-05
1.01405e-05
1.0124e-05
1.00964e-05
1.00579e-05
1.00084e-05
9.94802e-06
9.87651e-06
9.79366e-06
9.69929e-06
9.59323e-06
9.47529e-06
9.34531e-06
9.20309e-06
9.04831e-06
8.88055e-06
8.69946e-06
8.5048e-06
8.29622e-06
8.07316e-06
7.83506e-06
7.5814e-06
7.31165e-06
7.02522e-06
6.72149e-06
6.39979e-06
6.05932e-06
5.69911e-06
5.31825e-06
4.91588e-06
4.49112e-06
4.04282e-06
3.56963e-06
3.07012e-06
2.54296e-06
1.98685e-06
1.40035e-06
7.81538e-07
1.28285e-07
-5.61494e-07
-1.28983e-06
-2.05892e-06
-2.87119e-06
-3.72928e-06
-4.63599e-06
-5.59449e-06
-6.6085e-06
-7.68182e-06
-8.81808e-06
-1.00211e-05
-1.12951e-05
-1.2645e-05
-1.40757e-05
-1.55929e-05
-1.7202e-05
-1.89092e-05
-2.07208e-05
-2.26436e-05
-2.46848e-05
-2.68518e-05
-2.91527e-05
-3.15952e-05
-3.41878e-05
-3.69389e-05
-3.98574e-05
-4.29523e-05
-4.62323e-05
-4.97063e-05
-5.33826e-05
-5.72696e-05
-6.13744e-05
-6.5704e-05
-7.02639e-05
-7.5058e-05
-8.00887e-05
-8.53561e-05
-9.0858e-05
-9.65892e-05
-0.000102541
-0.0001087
-0.000115048
-0.000121564
-0.000128219
-0.000134978
-0.000141799
-0.000148634
-0.000155425
-0.000162108
-0.000168609
-0.000174847
-0.000180733
-0.000186172
-0.000191065
-0.000195311
-0.000198814
-0.000201487
-0.000203264
-0.000204115
-0.000204067
-0.000203237
-0.000201843
-0.000200183
-0.000545545
-0.000547521
-0.000548877
-0.000549542
-0.000549476
-0.000548629
-0.000547
-0.00054462
-0.000541543
-0.00053784
-0.000533587
-0.000528864
-0.000523753
-0.000518332
-0.000512675
-0.000506851
-0.000500919
-0.000494937
-0.000488954
-0.000483012
-0.000477148
-0.000471393
-0.000465773
-0.000460307
-0.000455014
-0.000449905
-0.00044499
-0.000440274
-0.00043576
-0.00043145
-0.000427342
-0.000423435
-0.000419723
-0.000416203
-0.000412867
-0.000409711
-0.000406727
-0.000403908
-0.000401246
-0.000398733
-0.000396364
-0.00039413
-0.000392024
-0.000390039
-0.000388168
-0.000386404
-0.000384743
-0.000383176
-0.0003817
-0.000380308
-0.000378996
-0.000377758
-0.00037659
-0.000375488
-0.000374448
-0.000373465
-0.000372538
-0.000371662
-0.000370834
-0.000370051
-0.000369312
-0.000368612
-0.000367951
-0.000367326
-0.000366734
-0.000366175
-0.000365646
-0.000365145
-0.000364672
-0.000364225
-0.000363802
-0.000363403
-0.000363026
-0.00036267
-0.000362334
-0.000362018
-0.00036172
-0.00036144
-0.000361178
-0.000360932
-0.000360701
-0.000360486
-0.000360286
-0.0003601
-0.000359928
-0.00035977
-0.000359624
-0.000359492
-0.000359372
-0.000359264
-0.000359168
-0.000359084
-0.000359012
-0.000358951
-0.000358902
-0.000358863
-0.000358836
-0.00035882
-0.000358815
-0.00035882
-0.000358837
-0.000358865
-0.000358904
-0.000358954
-0.000359015
-0.000359087
-0.000359171
-0.000359266
-0.000359374
-0.000359493
-0.000359624
-0.000359768
-0.000359925
-0.000360095
-0.000360278
-0.000360475
-0.000360686
-0.000360912
-0.000361154
-0.000361411
-0.000361684
-0.000361974
-0.000362282
-0.000362608
-0.000362954
-0.000363319
-0.000363705
-0.000364114
-0.000364545
-0.000365
-0.000365481
-0.000365988
-0.000366524
-0.000367089
-0.000367686
-0.000368315
-0.00036898
-0.000369681
-0.000370422
-0.000371204
-0.00037203
-0.000372904
-0.000373827
-0.000374803
-0.000375836
-0.000376928
-0.000378084
-0.000379307
-0.000380603
-0.000381976
-0.000383431
-0.000384973
-0.000386607
-0.000388341
-0.000390179
-0.000392128
-0.000394195
-0.000396387
-0.000398712
-0.000401177
-0.000403791
-0.00040656
-0.000409494
-0.0004126
-0.000415886
-0.00041936
-0.00042303
-0.000426902
-0.000430982
-0.000435275
-0.000439786
-0.000444517
-0.000449469
-0.000454641
-0.000460028
-0.000465623
-0.000471417
-0.000477396
-0.000483541
-0.000489829
-0.000496231
-0.000502713
-0.000509235
-0.00051575
-0.000522204
-0.000528536
-0.000534678
-0.000540557
-0.000546091
-0.000551196
-0.000555786
-0.000559772
-0.000563072
-0.000565612
-0.000567336
-0.000568213
-0.000568245
-0.000567494
-0.000566007
-0.000563862
-0.00109199
-0.00109451
-0.00109614
-0.00109691
-0.00109691
-0.00109614
-0.00109462
-0.00109239
-0.0010895
-0.00108602
-0.00108203
-0.00107759
-0.00107278
-0.00106766
-0.00106231
-0.00105679
-0.00105115
-0.00104545
-0.00103973
-0.00103404
-0.00102841
-0.00102286
-0.00101743
-0.00101214
-0.001007
-0.00100203
-0.000997235
-0.000992622
-0.000988197
-0.000983961
-0.000979915
-0.000976058
-0.000972387
-0.000968898
-0.000965586
-0.000962447
-0.000959473
-0.000956659
-0.000953998
-0.000951483
-0.000949108
-0.000946865
-0.000944749
-0.000942753
-0.000940868
-0.000939091
-0.000937415
-0.000935835
-0.000934343
-0.000932937
-0.000931609
-0.000930357
-0.000929175
-0.000928059
-0.000927006
-0.000926012
-0.000925072
-0.000924184
-0.000923345
-0.000922553
-0.000921803
-0.000921095
-0.000920425
-0.000919791
-0.000919192
-0.000918625
-0.000918089
-0.000917582
-0.000917103
-0.00091665
-0.000916222
-0.000915818
-0.000915436
-0.000915076
-0.000914736
-0.000914416
-0.000914115
-0.000913832
-0.000913566
-0.000913318
-0.000913085
-0.000912867
-0.000912665
-0.000912477
-0.000912303
-0.000912143
-0.000911996
-0.000911862
-0.000911741
-0.000911632
-0.000911535
-0.00091145
-0.000911377
-0.000911316
-0.000911266
-0.000911227
-0.0009112
-0.000911183
-0.000911178
-0.000911184
-0.000911201
-0.000911229
-0.000911268
-0.000911318
-0.00091138
-0.000911453
-0.000911537
-0.000911634
-0.000911742
-0.000911862
-0.000911995
-0.00091214
-0.000912298
-0.00091247
-0.000912655
-0.000912854
-0.000913067
-0.000913295
-0.000913539
-0.000913799
-0.000914075
-0.000914368
-0.00091468
-0.00091501
-0.000915359
-0.000915729
-0.000916119
-0.000916532
-0.000916969
-0.00091743
-0.000917916
-0.00091843
-0.000918972
-0.000919544
-0.000920148
-0.000920786
-0.00092146
-0.00092217
-0.000922921
-0.000923713
-0.00092455
-0.000925435
-0.000926371
-0.00092736
-0.000928405
-0.000929511
-0.000930682
-0.000931921
-0.000933232
-0.000934621
-0.000936091
-0.000937649
-0.0009393
-0.000941049
-0.000942903
-0.000944867
-0.000946948
-0.000949154
-0.00095149
-0.000953964
-0.000956584
-0.000959356
-0.000962288
-0.000965388
-0.000968662
-0.000972117
-0.00097576
-0.000979596
-0.000983631
-0.000987868
-0.000992311
-0.000996959
-0.00100181
-0.00100687
-0.00101213
-0.00101757
-0.0010232
-0.00102899
-0.00103492
-0.00104098
-0.00104713
-0.00105334
-0.00105957
-0.00106578
-0.00107191
-0.00107792
-0.00108373
-0.00108928
-0.00109449
-0.00109929
-0.0011036
-0.00110735
-0.00111045
-0.00111283
-0.00111445
-0.00111525
-0.00111522
-0.00111435
-0.00111257
-0.00110984
-0.00182006
-0.00182305
-0.00182498
-0.00182593
-0.00182606
-0.00182541
-0.00182403
-0.00182196
-0.00181927
-0.00181602
-0.00181228
-0.00180811
-0.00180358
-0.00179876
-0.0017937
-0.00178847
-0.00178312
-0.0017777
-0.00177225
-0.00176681
-0.00176141
-0.00175608
-0.00175085
-0.00174574
-0.00174077
-0.00173595
-0.00173129
-0.00172679
-0.00172247
-0.00171832
-0.00171436
-0.00171057
-0.00170695
-0.00170351
-0.00170024
-0.00169713
-0.00169418
-0.00169139
-0.00168874
-0.00168624
-0.00168387
-0.00168163
-0.00167951
-0.00167752
-0.00167563
-0.00167385
-0.00167216
-0.00167058
-0.00166908
-0.00166766
-0.00166633
-0.00166507
-0.00166388
-0.00166275
-0.00166169
-0.00166069
-0.00165974
-0.00165885
-0.001658
-0.0016572
-0.00165644
-0.00165573
-0.00165505
-0.00165441
-0.00165381
-0.00165323
-0.00165269
-0.00165218
-0.0016517
-0.00165124
-0.00165081
-0.0016504
-0.00165001
-0.00164965
-0.00164931
-0.00164899
-0.00164868
-0.0016484
-0.00164813
-0.00164788
-0.00164764
-0.00164742
-0.00164722
-0.00164703
-0.00164685
-0.00164669
-0.00164655
-0.00164641
-0.00164629
-0.00164618
-0.00164608
-0.001646
-0.00164592
-0.00164586
-0.00164581
-0.00164577
-0.00164574
-0.00164573
-0.00164572
-0.00164573
-0.00164574
-0.00164577
-0.00164581
-0.00164586
-0.00164592
-0.001646
-0.00164608
-0.00164618
-0.00164629
-0.00164641
-0.00164654
-0.00164669
-0.00164685
-0.00164702
-0.00164721
-0.00164741
-0.00164762
-0.00164785
-0.0016481
-0.00164836
-0.00164864
-0.00164894
-0.00164925
-0.00164958
-0.00164993
-0.00165031
-0.0016507
-0.00165112
-0.00165156
-0.00165202
-0.00165251
-0.00165303
-0.00165358
-0.00165416
-0.00165477
-0.00165541
-0.00165609
-0.00165681
-0.00165757
-0.00165837
-0.00165921
-0.0016601
-0.00166105
-0.00166204
-0.0016631
-0.00166421
-0.00166539
-0.00166664
-0.00166796
-0.00166936
-0.00167084
-0.00167241
-0.00167407
-0.00167582
-0.00167768
-0.00167965
-0.00168174
-0.00168394
-0.00168628
-0.00168875
-0.00169136
-0.00169412
-0.00169704
-0.00170012
-0.00170336
-0.00170678
-0.00171038
-0.00171417
-0.00171814
-0.0017223
-0.00172666
-0.00173121
-0.00173595
-0.00174087
-0.00174598
-0.00175127
-0.00175671
-0.0017623
-0.00176801
-0.00177383
-0.00177972
-0.00178566
-0.00179161
-0.00179751
-0.00180334
-0.00180902
-0.00181452
-0.00181975
-0.00182465
-0.00182917
-0.00183321
-0.00183671
-0.00183961
-0.00184182
-0.00184329
-0.00184396
-0.00184379
-0.00184273
-0.00184063
-0.00183738
-0.00272838
-0.00273175
-0.00273394
-0.00273508
-0.00273537
-0.00273487
-0.00273364
-0.00273175
-0.00272926
-0.00272624
-0.00272274
-0.00271883
-0.00271457
-0.00271003
-0.00270526
-0.00270032
-0.00269525
-0.0026901
-0.00268491
-0.00267971
-0.00267455
-0.00266945
-0.00266443
-0.00265951
-0.00265472
-0.00265006
-0.00264554
-0.00264118
-0.00263697
-0.00263293
-0.00262906
-0.00262535
-0.00262181
-0.00261843
-0.00261521
-0.00261215
-0.00260924
-0.00260648
-0.00260386
-0.00260138
-0.00259903
-0.00259681
-0.0025947
-0.00259271
-0.00259083
-0.00258905
-0.00258737
-0.00258579
-0.00258429
-0.00258287
-0.00258153
-0.00258027
-0.00257908
-0.00257795
-0.00257688
-0.00257588
-0.00257493
-0.00257403
-0.00257317
-0.00257237
-0.00257161
-0.00257089
-0.00257021
-0.00256957
-0.00256896
-0.00256838
-0.00256784
-0.00256732
-0.00256684
-0.00256638
-0.00256594
-0.00256553
-0.00256514
-0.00256478
-0.00256443
-0.00256411
-0.0025638
-0.00256352
-0.00256325
-0.00256299
-0.00256276
-0.00256254
-0.00256233
-0.00256214
-0.00256197
-0.0025618
-0.00256165
-0.00256152
-0.0025614
-0.00256128
-0.00256119
-0.0025611
-0.00256103
-0.00256096
-0.00256091
-0.00256087
-0.00256085
-0.00256083
-0.00256082
-0.00256083
-0.00256085
-0.00256088
-0.00256091
-0.00256097
-0.00256103
-0.0025611
-0.00256119
-0.00256128
-0.00256139
-0.00256152
-0.00256165
-0.0025618
-0.00256196
-0.00256213
-0.00256232
-0.00256252
-0.00256274
-0.00256297
-0.00256322
-0.00256348
-0.00256376
-0.00256406
-0.00256437
-0.00256471
-0.00256506
-0.00256544
-0.00256583
-0.00256625
-0.0025667
-0.00256716
-0.00256766
-0.00256818
-0.00256873
-0.00256931
-0.00256992
-0.00257057
-0.00257126
-0.00257198
-0.00257274
-0.00257354
-0.00257439
-0.00257529
-0.00257624
-0.00257724
-0.0025783
-0.00257942
-0.0025806
-0.00258186
-0.00258318
-0.00258458
-0.00258606
-0.00258763
-0.00258929
-0.00259105
-0.0025929
-0.00259487
-0.00259695
-0.00259914
-0.00260147
-0.00260392
-0.00260651
-0.00260925
-0.00261213
-0.00261517
-0.00261838
-0.00262175
-0.00262529
-0.002629
-0.00263289
-0.00263697
-0.00264122
-0.00264565
-0.00265026
-0.00265505
-0.00266
-0.0026651
-0.00267035
-0.00267573
-0.00268122
-0.00268679
-0.00269243
-0.00269809
-0.00270375
-0.00270936
-0.00271488
-0.00272026
-0.00272544
-0.00273037
-0.00273499
-0.00273922
-0.002743
-0.00274627
-0.00274895
-0.00275097
-0.00275228
-0.0027528
-0.00275245
-0.0027512
-0.00274881
-0.00274515
-0.00381512
-0.00381874
-0.00382113
-0.00382243
-0.00382288
-0.00382253
-0.00382147
-0.00381976
-0.00381747
-0.00381466
-0.0038114
-0.00380775
-0.00380376
-0.00379949
-0.003795
-0.00379033
-0.00378554
-0.00378066
-0.00377573
-0.00377079
-0.00376587
-0.003761
-0.00375619
-0.00375148
-0.00374687
-0.00374238
-0.00373802
-0.0037338
-0.00372973
-0.00372581
-0.00372204
-0.00371843
-0.00371497
-0.00371167
-0.00370852
-0.00370552
-0.00370266
-0.00369994
-0.00369736
-0.00369492
-0.0036926
-0.0036904
-0.00368831
-0.00368634
-0.00368448
-0.00368271
-0.00368104
-0.00367946
-0.00367797
-0.00367656
-0.00367523
-0.00367397
-0.00367277
-0.00367165
-0.00367058
-0.00366958
-0.00366862
-0.00366772
-0.00366687
-0.00366607
-0.00366531
-0.00366458
-0.0036639
-0.00366326
-0.00366265
-0.00366207
-0.00366153
-0.00366101
-0.00366052
-0.00366006
-0.00365962
-0.00365921
-0.00365882
-0.00365846
-0.00365811
-0.00365778
-0.00365748
-0.00365719
-0.00365692
-0.00365666
-0.00365643
-0.00365621
-0.003656
-0.00365581
-0.00365563
-0.00365547
-0.00365532
-0.00365518
-0.00365506
-0.00365495
-0.00365485
-0.00365476
-0.00365469
-0.00365463
-0.00365458
-0.00365454
-0.00365451
-0.00365449
-0.00365449
-0.00365449
-0.00365451
-0.00365454
-0.00365458
-0.00365463
-0.00365469
-0.00365477
-0.00365485
-0.00365495
-0.00365506
-0.00365518
-0.00365532
-0.00365546
-0.00365562
-0.0036558
-0.00365599
-0.00365619
-0.00365641
-0.00365664
-0.00365689
-0.00365715
-0.00365743
-0.00365773
-0.00365805
-0.00365838
-0.00365874
-0.00365911
-0.00365951
-0.00365993
-0.00366038
-0.00366085
-0.00366134
-0.00366187
-0.00366242
-0.003663
-0.00366362
-0.00366427
-0.00366495
-0.00366567
-0.00366644
-0.00366724
-0.0036681
-0.00366899
-0.00366994
-0.00367095
-0.00367201
-0.00367313
-0.00367431
-0.00367556
-0.00367688
-0.00367828
-0.00367976
-0.00368132
-0.00368297
-0.00368472
-0.00368656
-0.00368851
-0.00369058
-0.00369275
-0.00369505
-0.00369748
-0.00370004
-0.00370274
-0.00370558
-0.00370857
-0.00371171
-0.00371502
-0.00371848
-0.00372212
-0.00372591
-0.00372988
-0.00373402
-0.00373832
-0.00374279
-0.00374741
-0.00375219
-0.00375711
-0.00376215
-0.00376731
-0.00377257
-0.00377789
-0.00378327
-0.00378866
-0.00379403
-0.00379935
-0.00380457
-0.00380965
-0.00381453
-0.00381917
-0.00382349
-0.00382745
-0.00383098
-0.00383401
-0.00383648
-0.00383831
-0.00383945
-0.0038398
-0.00383929
-0.00383786
-0.00383525
-0.00383131
-0.00507797
-0.00508173
-0.00508425
-0.00508569
-0.00508627
-0.00508607
-0.00508517
-0.00508363
-0.00508154
-0.00507895
-0.00507592
-0.00507252
-0.00506879
-0.00506479
-0.00506057
-0.00505618
-0.00505165
-0.00504704
-0.00504238
-0.00503769
-0.00503302
-0.00502837
-0.00502379
-0.00501928
-0.00501487
-0.00501056
-0.00500637
-0.00500231
-0.00499838
-0.00499459
-0.00499094
-0.00498744
-0.00498408
-0.00498087
-0.00497779
-0.00497486
-0.00497207
-0.00496941
-0.00496688
-0.00496448
-0.0049622
-0.00496004
-0.00495798
-0.00495604
-0.0049542
-0.00495245
-0.0049508
-0.00494924
-0.00494776
-0.00494636
-0.00494503
-0.00494378
-0.0049426
-0.00494148
-0.00494042
-0.00493941
-0.00493847
-0.00493757
-0.00493672
-0.00493592
-0.00493516
-0.00493444
-0.00493376
-0.00493311
-0.0049325
-0.00493192
-0.00493138
-0.00493086
-0.00493037
-0.00492991
-0.00492948
-0.00492906
-0.00492868
-0.00492831
-0.00492796
-0.00492764
-0.00492733
-0.00492704
-0.00492677
-0.00492652
-0.00492628
-0.00492606
-0.00492585
-0.00492566
-0.00492548
-0.00492532
-0.00492517
-0.00492503
-0.00492491
-0.0049248
-0.0049247
-0.00492461
-0.00492454
-0.00492448
-0.00492443
-0.00492439
-0.00492436
-0.00492434
-0.00492434
-0.00492434
-0.00492436
-0.00492439
-0.00492443
-0.00492448
-0.00492454
-0.00492462
-0.0049247
-0.0049248
-0.00492491
-0.00492503
-0.00492517
-0.00492531
-0.00492548
-0.00492565
-0.00492584
-0.00492604
-0.00492626
-0.00492649
-0.00492674
-0.004927
-0.00492728
-0.00492758
-0.0049279
-0.00492824
-0.00492859
-0.00492897
-0.00492937
-0.00492979
-0.00493023
-0.0049307
-0.0049312
-0.00493172
-0.00493227
-0.00493286
-0.00493347
-0.00493412
-0.00493481
-0.00493553
-0.00493629
-0.0049371
-0.00493794
-0.00493884
-0.00493979
-0.00494079
-0.00494184
-0.00494296
-0.00494414
-0.00494538
-0.00494669
-0.00494808
-0.00494955
-0.0049511
-0.00495274
-0.00495447
-0.00495629
-0.00495822
-0.00496026
-0.00496241
-0.00496467
-0.00496706
-0.00496957
-0.00497222
-0.00497501
-0.00497794
-0.00498101
-0.00498424
-0.00498762
-0.00499115
-0.00499484
-0.00499869
-0.00500269
-0.00500685
-0.00501116
-0.00501562
-0.00502021
-0.00502493
-0.00502976
-0.0050347
-0.00503971
-0.00504479
-0.0050499
-0.00505501
-0.0050601
-0.00506513
-0.00507005
-0.00507484
-0.00507942
-0.00508377
-0.00508782
-0.00509151
-0.00509479
-0.00509759
-0.00509985
-0.0051015
-0.00510246
-0.00510266
-0.00510201
-0.00510043
-0.00509767
-0.00509357
-0.00651426
-0.00651806
-0.00652064
-0.00652217
-0.00652286
-0.00652279
-0.00652204
-0.00652068
-0.00651877
-0.00651639
-0.00651359
-0.00651043
-0.00650695
-0.00650321
-0.00649926
-0.00649514
-0.00649089
-0.00648655
-0.00648214
-0.00647771
-0.00647328
-0.00646888
-0.00646452
-0.00646023
-0.00645601
-0.0064519
-0.00644788
-0.00644399
-0.00644021
-0.00643656
-0.00643305
-0.00642967
-0.00642642
-0.0064233
-0.00642032
-0.00641748
-0.00641476
-0.00641217
-0.0064097
-0.00640735
-0.00640512
-0.006403
-0.00640099
-0.00639907
-0.00639726
-0.00639555
-0.00639392
-0.00639238
-0.00639092
-0.00638954
-0.00638823
-0.00638699
-0.00638582
-0.00638471
-0.00638366
-0.00638266
-0.00638172
-0.00638083
-0.00637999
-0.00637919
-0.00637843
-0.00637772
-0.00637704
-0.0063764
-0.00637579
-0.00637522
-0.00637467
-0.00637416
-0.00637367
-0.00637321
-0.00637278
-0.00637236
-0.00637198
-0.00637161
-0.00637126
-0.00637094
-0.00637063
-0.00637034
-0.00637007
-0.00636982
-0.00636958
-0.00636936
-0.00636916
-0.00636897
-0.00636879
-0.00636863
-0.00636848
-0.00636834
-0.00636822
-0.00636811
-0.00636801
-0.00636792
-0.00636785
-0.00636778
-0.00636773
-0.00636769
-0.00636767
-0.00636765
-0.00636764
-0.00636765
-0.00636767
-0.0063677
-0.00636773
-0.00636779
-0.00636785
-0.00636792
-0.00636801
-0.00636811
-0.00636822
-0.00636834
-0.00636847
-0.00636862
-0.00636878
-0.00636896
-0.00636914
-0.00636935
-0.00636956
-0.0063698
-0.00637004
-0.00637031
-0.00637059
-0.00637089
-0.0063712
-0.00637154
-0.00637189
-0.00637227
-0.00637267
-0.00637309
-0.00637353
-0.006374
-0.0063745
-0.00637502
-0.00637557
-0.00637615
-0.00637676
-0.00637741
-0.00637809
-0.00637881
-0.00637957
-0.00638037
-0.00638121
-0.0063821
-0.00638305
-0.00638404
-0.00638509
-0.00638619
-0.00638736
-0.00638859
-0.00638989
-0.00639127
-0.00639272
-0.00639425
-0.00639586
-0.00639757
-0.00639937
-0.00640127
-0.00640327
-0.00640538
-0.0064076
-0.00640994
-0.0064124
-0.00641499
-0.00641771
-0.00642056
-0.00642356
-0.00642669
-0.00642997
-0.00643339
-0.00643697
-0.00644068
-0.00644454
-0.00644855
-0.00645269
-0.00645696
-0.00646136
-0.00646588
-0.00647049
-0.00647519
-0.00647996
-0.00648477
-0.00648962
-0.00649445
-0.00649926
-0.006504
-0.00650863
-0.00651312
-0.00651742
-0.00652148
-0.00652526
-0.00652869
-0.00653173
-0.00653431
-0.00653636
-0.00653783
-0.00653863
-0.00653869
-0.00653792
-0.00653624
-0.00653342
-0.00652927
-0.00812094
-0.0081247
-0.00812728
-0.00812886
-0.00812963
-0.00812967
-0.00812905
-0.00812784
-0.00812612
-0.00812395
-0.00812137
-0.00811844
-0.00811521
-0.00811173
-0.00810805
-0.00810419
-0.00810021
-0.00809613
-0.00809199
-0.00808782
-0.00808364
-0.00807947
-0.00807534
-0.00807127
-0.00806727
-0.00806335
-0.00805952
-0.0080558
-0.00805219
-0.00804869
-0.00804532
-0.00804206
-0.00803893
-0.00803593
-0.00803305
-0.0080303
-0.00802766
-0.00802515
-0.00802275
-0.00802047
-0.00801829
-0.00801623
-0.00801426
-0.00801239
-0.00801062
-0.00800894
-0.00800734
-0.00800583
-0.0080044
-0.00800304
-0.00800175
-0.00800053
-0.00799937
-0.00799828
-0.00799724
-0.00799626
-0.00799532
-0.00799444
-0.00799361
-0.00799282
-0.00799207
-0.00799136
-0.00799069
-0.00799005
-0.00798945
-0.00798888
-0.00798834
-0.00798783
-0.00798734
-0.00798689
-0.00798645
-0.00798604
-0.00798566
-0.00798529
-0.00798495
-0.00798463
-0.00798432
-0.00798403
-0.00798376
-0.00798351
-0.00798328
-0.00798306
-0.00798285
-0.00798266
-0.00798248
-0.00798232
-0.00798217
-0.00798204
-0.00798191
-0.0079818
-0.00798171
-0.00798162
-0.00798155
-0.00798148
-0.00798143
-0.00798139
-0.00798136
-0.00798135
-0.00798134
-0.00798135
-0.00798137
-0.00798139
-0.00798143
-0.00798148
-0.00798155
-0.00798162
-0.00798171
-0.0079818
-0.00798191
-0.00798204
-0.00798217
-0.00798232
-0.00798248
-0.00798265
-0.00798284
-0.00798304
-0.00798326
-0.00798349
-0.00798374
-0.007984
-0.00798428
-0.00798458
-0.00798489
-0.00798523
-0.00798558
-0.00798595
-0.00798635
-0.00798677
-0.00798721
-0.00798767
-0.00798817
-0.00798869
-0.00798923
-0.00798981
-0.00799042
-0.00799106
-0.00799174
-0.00799245
-0.0079932
-0.007994
-0.00799484
-0.00799572
-0.00799665
-0.00799763
-0.00799867
-0.00799976
-0.00800091
-0.00800213
-0.00800341
-0.00800477
-0.0080062
-0.0080077
-0.00800929
-0.00801096
-0.00801273
-0.00801459
-0.00801655
-0.00801861
-0.00802078
-0.00802306
-0.00802546
-0.00802798
-0.00803062
-0.00803339
-0.00803629
-0.00803932
-0.00804249
-0.0080458
-0.00804924
-0.00805281
-0.00805652
-0.00806036
-0.00806432
-0.00806841
-0.0080726
-0.0080769
-0.00808128
-0.00808575
-0.00809026
-0.00809482
-0.00809939
-0.00810395
-0.00810847
-0.00811292
-0.00811727
-0.00812147
-0.00812548
-0.00812927
-0.00813278
-0.00813596
-0.00813876
-0.00814112
-0.00814298
-0.00814427
-0.00814493
-0.00814488
-0.00814403
-0.00814229
-0.00813946
-0.00813535
-0.00989464
-0.00989828
-0.00990082
-0.0099024
-0.00990322
-0.00990334
-0.00990284
-0.00990179
-0.00990024
-0.00989826
-0.00989589
-0.0098932
-0.00989021
-0.00988699
-0.00988356
-0.00987997
-0.00987626
-0.00987244
-0.00986857
-0.00986465
-0.00986072
-0.0098568
-0.0098529
-0.00984906
-0.00984527
-0.00984155
-0.00983792
-0.00983438
-0.00983094
-0.0098276
-0.00982437
-0.00982126
-0.00981826
-0.00981538
-0.00981261
-0.00980995
-0.00980742
-0.00980499
-0.00980267
-0.00980046
-0.00979835
-0.00979634
-0.00979443
-0.00979261
-0.00979088
-0.00978924
-0.00978769
-0.00978621
-0.0097848
-0.00978347
-0.00978221
-0.00978101
-0.00977988
-0.0097788
-0.00977778
-0.00977681
-0.00977589
-0.00977502
-0.0097742
-0.00977342
-0.00977268
-0.00977198
-0.00977132
-0.00977069
-0.00977009
-0.00976953
-0.00976899
-0.00976848
-0.00976801
-0.00976755
-0.00976712
-0.00976672
-0.00976633
-0.00976597
-0.00976563
-0.00976531
-0.00976501
-0.00976472
-0.00976445
-0.0097642
-0.00976397
-0.00976375
-0.00976355
-0.00976336
-0.00976318
-0.00976302
-0.00976287
-0.00976274
-0.00976262
-0.00976251
-0.00976241
-0.00976232
-0.00976225
-0.00976219
-0.00976214
-0.0097621
-0.00976207
-0.00976205
-0.00976205
-0.00976205
-0.00976207
-0.0097621
-0.00976214
-0.00976219
-0.00976225
-0.00976232
-0.00976241
-0.00976251
-0.00976262
-0.00976274
-0.00976287
-0.00976302
-0.00976318
-0.00976335
-0.00976354
-0.00976374
-0.00976395
-0.00976418
-0.00976443
-0.00976469
-0.00976497
-0.00976526
-0.00976558
-0.00976591
-0.00976626
-0.00976663
-0.00976702
-0.00976744
-0.00976788
-0.00976834
-0.00976883
-0.00976934
-0.00976989
-0.00977046
-0.00977106
-0.0097717
-0.00977237
-0.00977307
-0.00977382
-0.0097746
-0.00977543
-0.0097763
-0.00977722
-0.00977819
-0.00977921
-0.00978028
-0.00978142
-0.00978261
-0.00978387
-0.0097852
-0.0097866
-0.00978808
-0.00978963
-0.00979127
-0.00979299
-0.00979481
-0.00979672
-0.00979872
-0.00980083
-0.00980305
-0.00980538
-0.00980782
-0.00981037
-0.00981305
-0.00981585
-0.00981877
-0.00982182
-0.00982499
-0.00982829
-0.00983171
-0.00983525
-0.00983892
-0.0098427
-0.00984658
-0.00985057
-0.00985464
-0.0098588
-0.00986301
-0.00986727
-0.00987157
-0.00987586
-0.00988015
-0.00988438
-0.00988855
-0.0098926
-0.00989652
-0.00990025
-0.00990377
-0.00990701
-0.00990995
-0.00991252
-0.00991467
-0.00991635
-0.00991748
-0.00991802
-0.00991787
-0.00991696
-0.00991522
-0.00991244
-0.00990845
-0.0118317
-0.0118351
-0.0118376
-0.0118392
-0.01184
-0.0118402
-0.0118398
-0.0118389
-0.0118375
-0.0118357
-0.0118335
-0.011831
-0.0118283
-0.0118253
-0.0118222
-0.0118188
-0.0118154
-0.0118118
-0.0118082
-0.0118046
-0.0118009
-0.0117972
-0.0117935
-0.0117899
-0.0117864
-0.0117828
-0.0117794
-0.0117761
-0.0117728
-0.0117696
-0.0117666
-0.0117636
-0.0117607
-0.011758
-0.0117553
-0.0117528
-0.0117503
-0.011748
-0.0117458
-0.0117436
-0.0117416
-0.0117397
-0.0117378
-0.0117361
-0.0117344
-0.0117328
-0.0117313
-0.0117298
-0.0117285
-0.0117272
-0.0117259
-0.0117248
-0.0117236
-0.0117226
-0.0117216
-0.0117206
-0.0117197
-0.0117189
-0.0117181
-0.0117173
-0.0117166
-0.0117159
-0.0117152
-0.0117146
-0.011714
-0.0117135
-0.011713
-0.0117125
-0.011712
-0.0117115
-0.0117111
-0.0117107
-0.0117103
-0.01171
-0.0117096
-0.0117093
-0.011709
-0.0117087
-0.0117085
-0.0117082
-0.011708
-0.0117078
-0.0117076
-0.0117074
-0.0117072
-0.011707
-0.0117069
-0.0117068
-0.0117066
-0.0117065
-0.0117064
-0.0117063
-0.0117063
-0.0117062
-0.0117062
-0.0117061
-0.0117061
-0.0117061
-0.0117061
-0.0117061
-0.0117061
-0.0117061
-0.0117062
-0.0117062
-0.0117063
-0.0117064
-0.0117064
-0.0117065
-0.0117066
-0.0117068
-0.0117069
-0.011707
-0.0117072
-0.0117074
-0.0117076
-0.0117078
-0.011708
-0.0117082
-0.0117084
-0.0117087
-0.011709
-0.0117093
-0.0117096
-0.0117099
-0.0117103
-0.0117106
-0.011711
-0.0117114
-0.0117119
-0.0117123
-0.0117128
-0.0117133
-0.0117138
-0.0117144
-0.011715
-0.0117156
-0.0117163
-0.011717
-0.0117177
-0.0117185
-0.0117193
-0.0117202
-0.0117211
-0.011722
-0.011723
-0.0117241
-0.0117252
-0.0117264
-0.0117276
-0.0117289
-0.0117303
-0.0117317
-0.0117332
-0.0117348
-0.0117365
-0.0117382
-0.0117401
-0.011742
-0.0117441
-0.0117462
-0.0117485
-0.0117508
-0.0117533
-0.0117559
-0.0117586
-0.0117614
-0.0117643
-0.0117673
-0.0117705
-0.0117737
-0.0117771
-0.0117806
-0.0117842
-0.0117878
-0.0117916
-0.0117955
-0.0117994
-0.0118033
-0.0118073
-0.0118114
-0.0118154
-0.0118194
-0.0118233
-0.0118272
-0.011831
-0.0118346
-0.0118381
-0.0118413
-0.0118443
-0.011847
-0.0118494
-0.0118513
-0.0118528
-0.0118538
-0.0118542
-0.011854
-0.0118531
-0.0118514
-0.0118487
-0.0118449
-0.0139281
-0.0139314
-0.0139337
-0.0139352
-0.013936
-0.0139362
-0.0139359
-0.0139351
-0.0139339
-0.0139323
-0.0139303
-0.0139281
-0.0139256
-0.0139228
-0.0139199
-0.0139168
-0.0139136
-0.0139104
-0.013907
-0.0139036
-0.0139002
-0.0138968
-0.0138933
-0.0138899
-0.0138866