/*--------------------------------*- C++ -*----------------------------------*\
| =========                 |                                                 |
| \\      /  F ield         | OpenFOAM: The Open Source CFD Toolbox           |
|  \\    /   O peration     | Version:  2412                                  |
|   \\  /    A nd           | Website:  www.openfoam.com                      |
|    \\/     M anipulation  |                                                 |
\*---------------------------------------------------------------------------*/
FoamFile
{
    version     2.0;
    format      ascii;
    arch        "LSB;label=32;scalar=64";
    class       volScalarField;
    location    "900";
    object      p_rgh;
}
// * * * * * * * * * * * * * * * * * * * * * * * * * * * * * * * * * * * * * //

dimensions      [0 2 -2 0 0 0 0];

internalField   nonuniform List<scalar> 
40000
(
4.57806e-05
4.43435e-05
4.28029e-05
4.17399e-05
4.14972e-05
4.22123e-05
4.39083e-05
4.65399e-05
5.00222e-05
5.42537e-05
5.91227e-05
6.45181e-05
7.03337e-05
7.64693e-05
8.28358e-05
8.93491e-05
9.59384e-05
0.000102538
0.000109095
0.000115562
0.000121903
0.000128084
0.000134081
0.000139875
0.00014545
0.0001508
0.000155915
0.000160794
0.000165438
0.000169847
0.000174027
0.000177984
0.000181724
0.000185256
0.000188586
0.000191724
0.000194681
0.000197463
0.000200082
0.000202544
0.00020486
0.000207038
0.000209087
0.000211013
0.000212825
0.00021453
0.000216134
0.000217644
0.000219066
0.000220405
0.000221666
0.000222855
0.000223976
0.000225034
0.000226032
0.000226974
0.000227864
0.000228704
0.000229499
0.00023025
0.00023096
0.000231632
0.000232267
0.000232868
0.000233437
0.000233975
0.000234484
0.000234966
0.000235422
0.000235854
0.000236261
0.000236647
0.000237011
0.000237355
0.000237679
0.000237985
0.000238273
0.000238544
0.000238798
0.000239037
0.00023926
0.000239469
0.000239663
0.000239844
0.000240011
0.000240164
0.000240305
0.000240434
0.000240551
0.000240655
0.000240749
0.00024083
0.0002409
0.000240959
0.000241008
0.000241045
0.000241071
0.000241086
0.000241092
0.000241086
0.000241069
0.000241042
0.000241004
0.000240955
0.000240896
0.000240825
0.000240743
0.00024065
0.000240546
0.000240429
0.000240302
0.000240161
0.000240009
0.000239843
0.000239665
0.000239474
0.000239268
0.000239049
0.000238814
0.000238565
0.000238299
0.000238018
0.000237719
0.000237403
0.000237069
0.000236715
0.000236341
0.000235946
0.00023553
0.00023509
0.000234626
0.000234136
0.00023362
0.000233075
0.000232501
0.000231895
0.000231255
0.000230581
0.000229869
0.000229117
0.000228324
0.000227485
0.000226599
0.000225662
0.000224671
0.000223623
0.000222513
0.000221339
0.000220095
0.000218776
0.000217377
0.000215893
0.000214319
0.000212648
0.000210873
0.000208988
0.000206985
0.000204857
0.000202595
0.000200191
0.000197635
0.000194919
0.000192032
0.000188965
0.000185708
0.000182252
0.000178586
0.000174701
0.000170588
0.000166238
0.000161644
0.000156802
0.000151705
0.000146352
0.000140743
0.000134881
0.000128774
0.000122433
0.000115874
0.000109118
0.000102193
9.51344e-05
8.79847e-05
8.07945e-05
7.36242e-05
6.65431e-05
5.96308e-05
5.29768e-05
4.66805e-05
4.08501e-05
3.56009e-05
3.10527e-05
2.73241e-05
2.45261e-05
2.27467e-05
2.20321e-05
2.23533e-05
2.35549e-05
2.52583e-05
2.68404e-05
0.000230168
0.000228881
0.000227829
0.000227302
0.000227496
0.000228512
0.000230373
0.000233049
0.000236478
0.000240577
0.000245258
0.000250428
0.000255994
0.000261869
0.000267972
0.000274228
0.000280572
0.000286943
0.00029329
0.000299569
0.000305742
0.000311778
0.000317652
0.000323344
0.000328838
0.000334123
0.000339192
0.000344041
0.000348668
0.000353074
0.000357261
0.000361233
0.000364996
0.000368558
0.000371923
0.000375101
0.000378099
0.000380927
0.000383591
0.0003861
0.000388464
0.000390688
0.000392783
0.000394754
0.000396609
0.000398357
0.000400001
0.00040155
0.000403008
0.000404383
0.000405678
0.000406898
0.000408049
0.000409135
0.000410159
0.000411126
0.000412039
0.000412901
0.000413716
0.000414486
0.000415213
0.000415901
0.000416552
0.000417167
0.000417749
0.0004183
0.00041882
0.000419313
0.000419779
0.000420219
0.000420635
0.000421029
0.0004214
0.000421751
0.000422081
0.000422393
0.000422687
0.000422962
0.000423221
0.000423464
0.000423691
0.000423904
0.000424101
0.000424284
0.000424454
0.000424611
0.000424754
0.000424885
0.000425003
0.00042511
0.000425204
0.000425287
0.000425359
0.000425419
0.000425468
0.000425506
0.000425532
0.000425548
0.000425553
0.000425548
0.000425531
0.000425503
0.000425465
0.000425415
0.000425355
0.000425284
0.000425201
0.000425106
0.000425
0.000424882
0.000424752
0.00042461
0.000424455
0.000424288
0.000424106
0.000423912
0.000423703
0.00042348
0.000423242
0.000422988
0.000422719
0.000422432
0.000422128
0.000421807
0.000421466
0.000421106
0.000420725
0.000420322
0.000419898
0.000419449
0.000418976
0.000418476
0.000417949
0.000417392
0.000416805
0.000416186
0.000415532
0.000414842
0.000414112
0.000413342
0.000412529
0.00041167
0.000410761
0.000409801
0.000408785
0.00040771
0.000406571
0.000405365
0.000404087
0.000402733
0.000401298
0.000399776
0.000398161
0.000396447
0.000394628
0.000392697
0.000390647
0.000388469
0.000386156
0.000383701
0.000381093
0.000378326
0.000375389
0.000372274
0.000368972
0.000365473
0.00036177
0.000357853
0.000353716
0.000349351
0.000344752
0.000339915
0.000334838
0.00032952
0.000323964
0.000318173
0.000312158
0.00030593
0.000299507
0.000292912
0.000286172
0.000279322
0.000272403
0.000265464
0.000258563
0.000251763
0.000245138
0.000238768
0.000232743
0.000227157
0.00022211
0.000217701
0.000214028
0.000211178
0.000209215
0.00020817
0.000208015
0.000208636
0.000209814
0.000211255
0.000596265
0.000594938
0.000594169
0.000594064
0.000594664
0.000596022
0.000598137
0.000600981
0.0006045
0.000608623
0.000613275
0.000618376
0.000623845
0.000629604
0.000635581
0.000641706
0.00064792
0.000654167
0.0006604
0.000666574
0.000672656
0.000678613
0.000684422
0.000690062
0.000695517
0.000700777
0.00070583
0.000710673
0.000715305
0.000719723
0.000723929
0.000727927
0.000731721
0.000735316
0.00073872
0.000741938
0.000744978
0.000747848
0.000750555
0.000753109
0.000755515
0.000757782
0.000759918
0.000761929
0.000763824
0.000765608
0.000767288
0.000768871
0.000770362
0.000771766
0.00077309
0.000774338
0.000775514
0.000776624
0.00077767
0.000778658
0.000779591
0.000780471
0.000781303
0.000782088
0.000782831
0.000783532
0.000784195
0.000784823
0.000785415
0.000785976
0.000786506
0.000787007
0.000787481
0.000787929
0.000788352
0.000788752
0.00078913
0.000789486
0.000789822
0.000790138
0.000790436
0.000790716
0.000790979
0.000791225
0.000791455
0.00079167
0.000791871
0.000792056
0.000792228
0.000792387
0.000792532
0.000792665
0.000792785
0.000792893
0.000792988
0.000793072
0.000793145
0.000793205
0.000793255
0.000793293
0.000793321
0.000793337
0.000793342
0.000793336
0.000793319
0.000793292
0.000793253
0.000793203
0.000793142
0.000793069
0.000792985
0.00079289
0.000792783
0.000792664
0.000792532
0.000792388
0.000792232
0.000792062
0.000791879
0.000791682
0.00079147
0.000791244
0.000791003
0.000790746
0.000790473
0.000790182
0.000789874
0.000789548
0.000789202
0.000788837
0.00078845
0.000788042
0.00078761
0.000787154
0.000786673
0.000786165
0.000785629
0.000785063
0.000784465
0.000783834
0.000783168
0.000782465
0.000781722
0.000780937
0.000780107
0.00077923
0.000778303
0.000777322
0.000776284
0.000775186
0.000774023
0.000772791
0.000771485
0.000770101
0.000768634
0.000767078
0.000765428
0.000763676
0.000761818
0.000759846
0.000757753
0.000755531
0.000753174
0.000750672
0.000748018
0.000745203
0.000742219
0.000739058
0.00073571
0.000732168
0.000728423
0.000724469
0.000720299
0.000715907
0.000711288
0.000706439
0.000701359
0.000696048
0.00069051
0.000684751
0.00067878
0.000672611
0.000666261
0.000659754
0.000653116
0.000646381
0.000639589
0.000632787
0.000626028
0.000619372
0.000612886
0.000606643
0.000600724
0.000595213
0.000590197
0.000585762
0.000581992
0.000578959
0.00057672
0.000575307
0.000574715
0.000574887
0.000575773
0.0005773
0.00114107
0.0011398
0.00113931
0.00113962
0.00114066
0.00114242
0.00114489
0.00114803
0.00115177
0.00115607
0.00116084
0.00116601
0.00117152
0.0011773
0.00118327
0.00118938
0.00119557
0.00120178
0.00120798
0.00121413
0.00122019
0.00122612
0.00123192
0.00123755
0.00124301
0.00124827
0.00125334
0.0012582
0.00126285
0.0012673
0.00127154
0.00127557
0.0012794
0.00128304
0.00128648
0.00128974
0.00129282
0.00129574
0.00129848
0.00130108
0.00130353
0.00130583
0.00130801
0.00131006
0.00131199
0.0013138
0.00131551
0.00131713
0.00131865
0.00132008
0.00132143
0.0013227
0.0013239
0.00132503
0.00132609
0.0013271
0.00132805
0.00132894
0.00132979
0.00133059
0.00133134
0.00133206
0.00133273
0.00133337
0.00133397
0.00133454
0.00133508
0.00133559
0.00133607
0.00133652
0.00133695
0.00133735
0.00133774
0.0013381
0.00133844
0.00133876
0.00133906
0.00133934
0.00133961
0.00133986
0.00134009
0.00134031
0.00134051
0.0013407
0.00134087
0.00134103
0.00134118
0.00134131
0.00134143
0.00134154
0.00134164
0.00134172
0.0013418
0.00134186
0.00134191
0.00134195
0.00134198
0.00134199
0.001342
0.00134199
0.00134197
0.00134195
0.00134191
0.00134186
0.0013418
0.00134172
0.00134164
0.00134154
0.00134143
0.00134131
0.00134118
0.00134103
0.00134088
0.00134071
0.00134052
0.00134032
0.00134011
0.00133988
0.00133964
0.00133938
0.0013391
0.00133881
0.00133849
0.00133816
0.00133781
0.00133744
0.00133705
0.00133664
0.0013362
0.00133574
0.00133525
0.00133474
0.00133419
0.00133362
0.00133301
0.00133237
0.0013317
0.00133098
0.00133023
0.00132943
0.00132859
0.0013277
0.00132675
0.00132575
0.0013247
0.00132358
0.0013224
0.00132114
0.00131981
0.0013184
0.00131691
0.00131532
0.00131364
0.00131185
0.00130996
0.00130795
0.00130582
0.00130356
0.00130116
0.00129861
0.00129591
0.00129305
0.00129002
0.00128682
0.00128342
0.00127983
0.00127605
0.00127205
0.00126784
0.00126341
0.00125876
0.00125388
0.00124877
0.00124344
0.00123789
0.00123213
0.00122616
0.00122
0.00121367
0.00120718
0.00120058
0.00119387
0.00118712
0.00118035
0.00117362
0.00116698
0.0011605
0.00115425
0.00114828
0.00114269
0.00113755
0.00113293
0.00112892
0.00112557
0.00112295
0.0011211
0.00112005
0.00111978
0.00112039
0.0011219
0.00186061
0.00185965
0.00185958
0.0018604
0.00186197
0.00186424
0.00186718
0.00187072
0.00187482
0.00187941
0.00188443
0.0018898
0.00189547
0.00190137
0.00190745
0.00191363
0.00191989
0.00192616
0.0019324
0.00193859
0.00194468
0.00195065
0.00195648
0.00196215
0.00196764
0.00197294
0.00197805
0.00198295
0.00198764
0.00199213
0.00199641
0.00200049
0.00200437
0.00200805
0.00201154
0.00201484
0.00201797
0.00202093
0.00202372
0.00202635
0.00202884
0.00203119
0.0020334
0.00203548
0.00203744
0.00203929
0.00204103
0.00204267
0.00204421
0.00204567
0.00204704
0.00204833
0.00204955
0.0020507
0.00205178
0.0020528
0.00205376
0.00205467
0.00205553
0.00205634
0.00205711
0.00205783
0.00205851
0.00205916
0.00205977
0.00206034
0.00206089
0.0020614
0.00206189
0.00206235
0.00206278
0.00206319
0.00206358
0.00206394
0.00206428
0.00206461
0.00206491
0.0020652
0.00206547
0.00206572
0.00206595
0.00206617
0.00206637
0.00206656
0.00206674
0.0020669
0.00206705
0.00206718
0.00206731
0.00206742
0.00206751
0.0020676
0.00206767
0.00206773
0.00206779
0.00206782
0.00206785
0.00206787
0.00206787
0.00206787
0.00206785
0.00206782
0.00206778
0.00206773
0.00206767
0.0020676
0.00206751
0.00206742
0.00206731
0.00206719
0.00206705
0.00206691
0.00206675
0.00206657
0.00206639
0.00206619
0.00206597
0.00206574
0.0020655
0.00206523
0.00206495
0.00206466
0.00206434
0.00206401
0.00206366
0.00206329
0.00206289
0.00206247
0.00206203
0.00206156
0.00206107
0.00206055
0.00206
0.00205942
0.00205881
0.00205816
0.00205747
0.00205675
0.00205599
0.00205518
0.00205432
0.00205342
0.00205246
0.00205145
0.00205038
0.00204924
0.00204804
0.00204676
0.00204541
0.00204398
0.00204246
0.00204085
0.00203914
0.00203732
0.0020354
0.00203336
0.00203119
0.00202889
0.00202645
0.00202386
0.00202112
0.00201822
0.00201514
0.00201189
0.00200844
0.00200481
0.00200097
0.00199692
0.00199266
0.00198818
0.00198348
0.00197856
0.00197341
0.00196804
0.00196245
0.00195664
0.00195064
0.00194444
0.00193807
0.00193155
0.0019249
0.00191816
0.00191136
0.00190453
0.00189773
0.00189101
0.00188442
0.00187803
0.00187189
0.00186609
0.00186068
0.00185575
0.00185135
0.00184757
0.00184445
0.00184206
0.00184044
0.00183964
0.00183981
0.00184106
0.00275002
0.00274964
0.00275019
0.00275166
0.00275388
0.00275677
0.00276029
0.00276436
0.00276893
0.00277394
0.00277932
0.00278501
0.00279095
0.00279708
0.00280336
0.00280972
0.00281612
0.00282252
0.00282889
0.00283517
0.00284136
0.00284742
0.00285332
0.00285907
0.00286463
0.00286999
0.00287516
0.00288013
0.00288488
0.00288943
0.00289377
0.0028979
0.00290183
0.00290557
0.00290911
0.00291246
0.00291563
0.00291863
0.00292147
0.00292414
0.00292666
0.00292904
0.00293129
0.0029334
0.00293539
0.00293727
0.00293904
0.0029407
0.00294227
0.00294374
0.00294513
0.00294644
0.00294768
0.00294884
0.00294994
0.00295097
0.00295195
0.00295286
0.00295373
0.00295455
0.00295533
0.00295606
0.00295674
0.0029574
0.00295801
0.00295859
0.00295914
0.00295966
0.00296015
0.00296061
0.00296105
0.00296146
0.00296185
0.00296222
0.00296256
0.00296289
0.0029632
0.00296348
0.00296375
0.00296401
0.00296424
0.00296446
0.00296467
0.00296486
0.00296504
0.0029652
0.00296535
0.00296548
0.00296561
0.00296572
0.00296581
0.0029659
0.00296597
0.00296604
0.00296609
0.00296613
0.00296615
0.00296617
0.00296618
0.00296617
0.00296615
0.00296613
0.00296609
0.00296604
0.00296597
0.0029659
0.00296581
0.00296572
0.00296561
0.00296549
0.00296535
0.0029652
0.00296504
0.00296487
0.00296468
0.00296448
0.00296426
0.00296403
0.00296379
0.00296352
0.00296324
0.00296294
0.00296263
0.00296229
0.00296194
0.00296156
0.00296116
0.00296074
0.0029603
0.00295983
0.00295933
0.00295881
0.00295825
0.00295767
0.00295705
0.00295639
0.0029557
0.00295497
0.0029542
0.00295338
0.00295252
0.00295161
0.00295064
0.00294961
0.00294853
0.00294738
0.00294616
0.00294487
0.0029435
0.00294205
0.00294051
0.00293887
0.00293714
0.0029353
0.00293334
0.00293127
0.00292907
0.00292674
0.00292426
0.00292163
0.00291885
0.0029159
0.00291278
0.00290948
0.00290598
0.00290229
0.0028984
0.0028943
0.00288998
0.00288544
0.00288068
0.00287569
0.00287047
0.00286503
0.00285937
0.0028535
0.00284741
0.00284114
0.00283468
0.00282807
0.00282132
0.00281447
0.00280754
0.00280058
0.00279361
0.00278671
0.0027799
0.00277325
0.00276683
0.00276068
0.00275488
0.0027495
0.0027446
0.00274025
0.00273651
0.00273345
0.00273115
0.00272965
0.00272918
0.00272987
0.00380345
0.00380393
0.0038053
0.00380759
0.00381059
0.00381424
0.00381846
0.00382317
0.00382833
0.00383386
0.00383971
0.00384582
0.00385213
0.0038586
0.00386516
0.00387178
0.00387841
0.00388502
0.00389156
0.00389801
0.00390434
0.00391053
0.00391656
0.00392242
0.00392808
0.00393354
0.0039388
0.00394385
0.00394868
0.0039533
0.00395771
0.00396191
0.0039659
0.00396969
0.00397328
0.00397669
0.00397991
0.00398295
0.00398583
0.00398854
0.0039911
0.00399352
0.00399579
0.00399793
0.00399995
0.00400185
0.00400364
0.00400533
0.00400691
0.00400841
0.00400981
0.00401114
0.00401238
0.00401356
0.00401467
0.00401571
0.00401669
0.00401762
0.0040185
0.00401932
0.0040201
0.00402084
0.00402153
0.00402219
0.00402281
0.00402339
0.00402395
0.00402447
0.00402496
0.00402542
0.00402586
0.00402628
0.00402667
0.00402704
0.00402739
0.00402771
0.00402802
0.00402831
0.00402858
0.00402883
0.00402907
0.00402929
0.0040295
0.00402969
0.00402987
0.00403003
0.00403018
0.00403032
0.00403044
0.00403055
0.00403065
0.00403073
0.00403081
0.00403087
0.00403092
0.00403096
0.00403099
0.00403101
0.00403101
0.00403101
0.00403099
0.00403096
0.00403092
0.00403087
0.00403081
0.00403073
0.00403065
0.00403055
0.00403044
0.00403032
0.00403018
0.00403004
0.00402988
0.0040297
0.00402951
0.00402931
0.00402909
0.00402886
0.00402861
0.00402835
0.00402807
0.00402777
0.00402745
0.00402711
0.00402676
0.00402638
0.00402598
0.00402556
0.00402511
0.00402464
0.00402414
0.00402361
0.00402305
0.00402247
0.00402184
0.00402119
0.00402049
0.00401975
0.00401898
0.00401815
0.00401728
0.00401636
0.00401539
0.00401435
0.00401326
0.0040121
0.00401087
0.00400956
0.00400818
0.00400671
0.00400515
0.0040035
0.00400174
0.00399988
0.0039979
0.0039958
0.00399357
0.0039912
0.00398869
0.00398603
0.0039832
0.00398021
0.00397704
0.00397369
0.00397014
0.0039664
0.00396245
0.00395828
0.0039539
0.00394929
0.00394445
0.00393938
0.00393408
0.00392855
0.00392279
0.00391681
0.00391062
0.00390422
0.00389763
0.00389088
0.00388397
0.00387694
0.00386981
0.00386263
0.00385542
0.00384823
0.00384111
0.00383411
0.00382728
0.00382068
0.00381438
0.00380843
0.0038029
0.00379785
0.00379337
0.00378951
0.00378636
0.003784
0.00378265
0.00378249
0.00501413
0.00501573
0.00501813
0.0050214
0.00502533
0.00502986
0.00503489
0.00504036
0.00504621
0.00505237
0.00505879
0.00506541
0.00507219
0.00507907
0.005086
0.00509296
0.00509989
0.00510676
0.00511354
0.00512021
0.00512674
0.0051331
0.00513929
0.00514529
0.00515109
0.00515667
0.00516204
0.00516719
0.00517212
0.00517682
0.00518131
0.00518558
0.00518964
0.00519349
0.00519715
0.0052006
0.00520387
0.00520696
0.00520988
0.00521263
0.00521523
0.00521767
0.00521998
0.00522214
0.00522419
0.00522611
0.00522792
0.00522962
0.00523122
0.00523273
0.00523415
0.00523549
0.00523674
0.00523793
0.00523904
0.00524009
0.00524108
0.00524202
0.0052429
0.00524373
0.00524451
0.00524525
0.00524595
0.00524661
0.00524723
0.00524781
0.00524837
0.00524889
0.00524939
0.00524985
0.00525029
0.00525071
0.0052511
0.00525147
0.00525182
0.00525215
0.00525245
0.00525274
0.00525301
0.00525327
0.00525351
0.00525373
0.00525393
0.00525413
0.0052543
0.00525447
0.00525462
0.00525475
0.00525488
0.00525499
0.00525508
0.00525517
0.00525525
0.00525531
0.00525536
0.0052554
0.00525543
0.00525544
0.00525545
0.00525544
0.00525543
0.0052554
0.00525536
0.00525531
0.00525524
0.00525517
0.00525508
0.00525499
0.00525488
0.00525475
0.00525462
0.00525447
0.00525431
0.00525414
0.00525395
0.00525375
0.00525353
0.0052533
0.00525305
0.00525278
0.0052525
0.0052522
0.00525188
0.00525155
0.00525119
0.00525081
0.00525041
0.00524999
0.00524954
0.00524907
0.00524857
0.00524804
0.00524748
0.00524689
0.00524626
0.0052456
0.0052449
0.00524417
0.00524338
0.00524256
0.00524168
0.00524076
0.00523977
0.00523873
0.00523763
0.00523646
0.00523522
0.00523391
0.00523251
0.00523103
0.00522946
0.00522779
0.00522601
0.00522413
0.00522213
0.00522001
0.00521775
0.00521535
0.00521281
0.00521011
0.00520725
0.00520422
0.005201
0.0051976
0.005194
0.0051902
0.00518618
0.00518195
0.00517749
0.00517279
0.00516787
0.00516271
0.0051573
0.00515166
0.00514578
0.00513967
0.00513333
0.00512677
0.00512001
0.00511306
0.00510594
0.00509868
0.00509129
0.00508382
0.00507628
0.00506874
0.00506121
0.00505376
0.00504643
0.00503928
0.00503236
0.00502573
0.00501945
0.00501359
0.00500823
0.00500343
0.00499929
0.00499588
0.00499344
0.00499215
0.00637439
0.00637734
0.00638095
0.00638536
0.00639036
0.00639589
0.00640185
0.00640818
0.00641481
0.0064217
0.00642878
0.006436
0.00644332
0.00645069
0.00645807
0.00646542
0.00647271
0.00647991
0.00648698
0.00649391
0.00650068
0.00650726
0.00651364
0.00651982
0.00652577
0.0065315
0.006537
0.00654227
0.00654731
0.00655211
0.00655669
0.00656104
0.00656517
0.00656909
0.00657281
0.00657632
0.00657964
0.00658277
0.00658573
0.00658852
0.00659115
0.00659362
0.00659595
0.00659815
0.00660021
0.00660215
0.00660398
0.00660569
0.00660731
0.00660883
0.00661026
0.0066116
0.00661286
0.00661405
0.00661518
0.00661623
0.00661723
0.00661816
0.00661904
0.00661988
0.00662066
0.0066214
0.0066221
0.00662276
0.00662338
0.00662397
0.00662452
0.00662505
0.00662554
0.00662601
0.00662645
0.00662686
0.00662726
0.00662763
0.00662797
0.0066283
0.00662861
0.0066289
0.00662917
0.00662942
0.00662966
0.00662988
0.00663009
0.00663028
0.00663046
0.00663062
0.00663077
0.0066309
0.00663103
0.00663114
0.00663124
0.00663132
0.0066314
0.00663146
0.00663151
0.00663155
0.00663158
0.00663159
0.0066316
0.00663159
0.00663158
0.00663155
0.00663151
0.00663146
0.0066314
0.00663132
0.00663124
0.00663114
0.00663103
0.00663091
0.00663077
0.00663062
0.00663046
0.00663029
0.0066301
0.0066299
0.00662968
0.00662945
0.0066292
0.00662894
0.00662866
0.00662836
0.00662804
0.0066277
0.00662734
0.00662697
0.00662657
0.00662614
0.0066257
0.00662522
0.00662472
0.00662419
0.00662363
0.00662304
0.00662242
0.00662176
0.00662106
0.00662032
0.00661954
0.00661871
0.00661783
0.0066169
0.00661592
0.00661487
0.00661377
0.00661259
0.00661135
0.00661003
0.00660862
0.00660713
0.00660555
0.00660386
0.00660208
0.00660018
0.00659816
0.00659601
0.00659373
0.00659131
0.00658874
0.006586
0.00658311
0.00658003
0.00657677
0.00657332
0.00656966
0.0065658
0.00656172
0.00655741
0.00655287
0.00654809
0.00654306
0.00653779
0.00653227
0.0065265
0.00652047
0.0065142
0.00650769
0.00650094
0.00649397
0.00648678
0.00647941
0.00647185
0.00646415
0.00645632
0.0064484
0.00644041
0.00643241
0.00642443
0.00641651
0.00640871
0.00640107
0.00639366
0.00638653
0.00637975
0.00637338
0.00636751
0.00636222
0.00635759
0.00635386
0.00635119
0.00787576
0.00788024
0.00788523
0.00789092
0.00789712
0.00790375
0.00791074
0.00791802
0.00792554
0.00793323
0.00794104
0.00794894
0.00795687
0.0079648
0.00797268
0.00798049
0.00798819
0.00799576
0.00800318
0.00801041
0.00801745
0.00802428
0.00803089
0.00803726
0.0080434
0.00804929
0.00805494
0.00806034
0.0080655
0.00807041
0.00807509
0.00807953
0.00808374
0.00808773
0.00809151
0.00809508
0.00809845
0.00810162
0.00810462
0.00810745
0.00811011
0.00811261
0.00811496
0.00811718
0.00811926
0.00812121
0.00812305
0.00812478
0.00812641
0.00812793
0.00812937
0.00813072
0.00813199
0.00813318
0.0081343
0.00813536
0.00813636
0.00813729
0.00813818
0.00813901
0.00813979
0.00814053
0.00814123
0.00814189
0.00814251
0.0081431
0.00814365
0.00814417
0.00814467
0.00814513
0.00814557
0.00814598
0.00814637
0.00814674
0.00814709
0.00814741
0.00814772
0.00814801
0.00814828
0.00814853
0.00814877
0.00814899
0.0081492
0.00814939
0.00814956
0.00814972
0.00814987
0.00815001
0.00815013
0.00815024
0.00815034
0.00815043
0.0081505
0.00815056
0.00815061
0.00815065
0.00815068
0.0081507
0.0081507
0.0081507
0.00815068
0.00815065
0.00815061
0.00815056
0.0081505
0.00815042
0.00815034
0.00815024
0.00815013
0.00815001
0.00814988
0.00814973
0.00814957
0.0081494
0.00814921
0.00814901
0.00814879
0.00814856
0.00814831
0.00814805
0.00814777
0.00814747
0.00814715
0.00814682
0.00814646
0.00814608
0.00814569
0.00814526
0.00814482
0.00814435
0.00814385
0.00814332
0.00814276
0.00814217
0.00814155
0.00814089
0.00814019
0.00813945
0.00813867
0.00813784
0.00813697
0.00813604
0.00813505
0.00813401
0.0081329
0.00813172
0.00813047
0.00812915
0.00812774
0.00812624
0.00812465
0.00812296
0.00812116
0.00811925
0.00811721
0.00811505
0.00811275
0.0081103
0.0081077
0.00810494
0.00810201
0.00809889
0.00809559
0.00809209
0.00808838
0.00808445
0.0080803
0.00807591
0.00807128
0.0080664
0.00806127
0.00805588
0.00805023
0.00804431
0.00803812
0.00803167
0.00802496
0.00801799
0.00801077
0.00800332
0.00799564
0.00798775
0.00797968
0.00797144
0.00796307
0.00795459
0.00794604
0.00793745
0.00792887
0.00792033
0.0079119
0.00790362
0.00789554
0.00788773
0.00788025
0.00787319
0.00786661
0.00786061
0.00785539
0.00785114
0.00950897
0.00951516
0.00952167
0.00952876
0.00953625
0.00954409
0.0095522
0.00956051
0.00956898
0.00957755
0.00958617
0.00959481
0.00960341
0.00961195
0.00962039
0.0096287
0.00963686
0.00964485
0.00965263
0.00966021
0.00966755
0.00967466
0.00968151
0.00968811
0.00969445
0.00970052
0.00970633
0.00971188
0.00971717
0.0097222
0.00972698
0.00973151
0.0097358
0.00973987
0.00974371
0.00974733
0.00975075
0.00975398
0.00975701
0.00975987
0.00976256
0.00976508
0.00976746
0.00976969
0.00977179
0.00977375
0.0097756
0.00977734
0.00977897
0.0097805
0.00978194
0.00978329
0.00978456
0.00978576
0.00978688
0.00978794
0.00978893
0.00978987
0.00979075
0.00979158
0.00979236
0.0097931
0.00979379
0.00979445
0.00979507
0.00979565
0.0097962
0.00979672
0.00979721
0.00979767
0.00979811
0.00979852
0.00979891
0.00979928
0.00979962
0.00979994
0.00980025
0.00980054
0.0098008
0.00980106
0.00980129
0.00980151
0.00980171
0.0098019
0.00980208
0.00980224
0.00980239
0.00980252
0.00980265
0.00980275
0.00980285
0.00980294
0.00980301
0.00980307
0.00980312
0.00980316
0.00980319
0.00980321
0.00980321
0.00980321
0.00980319
0.00980316
0.00980312
0.00980307
0.00980301
0.00980294
0.00980285
0.00980275
0.00980264
0.00980252
0.00980239
0.00980224
0.00980208
0.00980191
0.00980173
0.00980152
0.00980131
0.00980108
0.00980083
0.00980057
0.00980029
0.0098
0.00979968
0.00979935
0.00979899
0.00979862
0.00979822
0.0097978
0.00979736
0.00979689
0.00979639
0.00979587
0.00979531
0.00979473
0.00979411
0.00979345
0.00979275
0.00979202
0.00979124
0.00979042
0.00978954
0.00978861
0.00978763
0.00978659
0.00978548
0.00978431
0.00978306
0.00978173
0.00978032
0.00977882
0.00977722
0.00977553
0.00977372
0.0097718
0.00976975
0.00976758
0.00976526
0.00976279
0.00976017
0.00975738
0.00975442
0.00975126
0.00974792
0.00974437
0.0097406
0.00973661
0.00973238
0.00972792
0.0097232
0.00971822
0.00971297
0.00970745
0.00970166
0.00969558
0.00968921
0.00968256
0.00967563
0.00966841
0.00966092
0.00965317
0.00964515
0.0096369
0.00962842
0.00961973
0.00961086
0.00960182
0.00959267
0.00958341
0.0095741
0.00956477
0.00955546
0.00954623
0.00953712
0.00952819
0.0095195
0.00951113
0.00950316
0.00949564
0.0094888
0.00948278
0.0112641
0.0112722
0.0112803
0.0112889
0.0112978
0.0113069
0.0113162
0.0113256
0.0113351
0.0113446
0.0113541
0.0113635
0.0113728
0.011382
0.0113911
0.0113999
0.0114086
0.011417
0.0114252
0.0114331
0.0114408
0.0114482
0.0114553
0.0114622
0.0114687
0.011475
0.011481
0.0114867
0.0114921
0.0114972
0.0115021
0.0115068
0.0115111
0.0115153
0.0115192
0.0115229
0.0115263
0.0115296
0.0115327
0.0115356
0.0115383
0.0115408
0.0115432
0.0115455
0.0115476
0.0115495
0.0115514
0.0115531
0.0115548
0.0115563
0.0115577
0.0115591
0.0115604
0.0115616
0.0115627
0.0115637
0.0115647
0.0115657
0.0115665
0.0115674
0.0115681
0.0115689
0.0115696
0.0115702
0.0115708
0.0115714
0.0115719
0.0115725
0.011573
0.0115734
0.0115738
0.0115743
0.0115746
0.011575
0.0115753
0.0115757
0.011576
0.0115762
0.0115765
0.0115768
0.011577
0.0115772
0.0115774
0.0115776
0.0115778
0.0115779
0.0115781
0.0115782
0.0115783
0.0115785
0.0115785
0.0115786
0.0115787
0.0115788
0.0115788
0.0115789
0.0115789
0.0115789
0.0115789
0.0115789
0.0115789
0.0115789
0.0115788
0.0115788
0.0115787
0.0115786
0.0115785
0.0115784
0.0115783
0.0115782
0.0115781
0.0115779
0.0115778
0.0115776
0.0115774
0.0115772
0.011577
0.0115768
0.0115765
0.0115763
0.011576
0.0115757
0.0115754
0.0115751
0.0115747
0.0115743
0.011574
0.0115735
0.0115731
0.0115726
0.0115721
0.0115716
0.0115711
0.0115705
0.0115699
0.0115692
0.0115685
0.0115678
0.011567
0.0115662
0.0115653
0.0115644
0.0115634
0.0115624
0.0115613
0.0115601
0.0115589
0.0115575
0.0115561
0.0115546
0.011553
0.0115513
0.0115495
0.0115476
0.0115456
0.0115434
0.011541
0.0115386
0.0115359
0.0115331
0.0115301
0.0115269
0.0115235
0.0115199
0.0115161
0.0115121
0.0115078
0.0115032
0.0114984
0.0114933
0.0114879
0.0114823
0.0114763
0.0114701
0.0114635
0.0114567
0.0114495
0.011442
0.0114342
0.0114262
0.0114178
0.0114091
0.0114002
0.011391
0.0113816
0.011372
0.0113622
0.0113522
0.0113421
0.0113319
0.0113217
0.0113114
0.0113012
0.0112911
0.0112811
0.0112714
0.0112619
0.0112528
0.0112442
0.0112362
0.0131308
0.0131407
0.0131506
0.0131608
0.0131711
0.0131816
0.0131921
0.0132027
0.0132132
0.0132237
0.0132341
0.0132443
0.0132544
0.0132643
0.013274
0.0132834
0.0132926
0.0133015
0.0133101
0.0133184
0.0133265
0.0133342
0.0133416
0.0133487
0.0133554
0.0133619
0.0133681
0.0133739
0.0133795
0.0133848
0.0133898
0.0133945
0.013399
0.0134032
0.0134071
0.0134109
0.0134144
0.0134177
0.0134208
0.0134237
0.0134265
0.013429
0.0134314
0.0134337
0.0134358
0.0134378
0.0134396
0.0134414
0.013443
0.0134446
0.013446
0.0134473
0.0134486
0.0134498
0.0134509
0.0134519
0.0134529
0.0134539
0.0134547
0.0134555
0.0134563
0.013457
0.0134577
0.0134584
0.013459
0.0134596
0.0134601
0.0134606
0.0134611
0.0134615
0.013462
0.0134624
0.0134628
0.0134631
0.0134635
0.0134638
0.0134641
0.0134643
0.0134646
0.0134649
0.0134651
0.0134653
0.0134655
0.0134657
0.0134659
0.013466
0.0134662
0.0134663
0.0134664
0.0134665
0.0134666
0.0134667
0.0134668
0.0134668
0.0134669
0.0134669
0.013467
0.013467
0.013467
0.013467
0.013467
0.0134669
0.0134669
0.0134668
0.0134668
0.0134667
0.0134666
0.0134665
0.0134664
0.0134663
0.0134662
0.013466
0.0134659
0.0134657
0.0134655
0.0134653
0.0134651
0.0134649
0.0134646
0.0134644
0.0134641
0.0134638
0.0134635
0.0134632
0.0134628
0.0134625
0.0134621
0.0134617
0.0134612
0.0134608
0.0134603
0.0134598
0.0134592
0.0134586
0.013458
0.0134574
0.0134567
0.013456
0.0134552
0.0134544
0.0134535
0.0134526
0.0134516
0.0134506
0.0134495
0.0134484
0.0134471
0.0134458
0.0134444
0.0134429
0.0134413
0.0134396
0.0134378
0.0134359
0.0134338
0.0134316
0.0134293
0.0134268
0.0134241
0.0134213
0.0134183
0.013415
0.0134116
0.013408
0.0134041
0.0134
0.0133956
0.013391
0.0133861
0.0133809
0.0133754
0.0133696
0.0133635
0.0133571
0.0133503
0.0133432
0.0133358
0.0133281
0.01332
0.0133115
0.0133028
0.0132937
0.0132843
0.0132746
0.0132646
0.0132544
0.0132439
0.0132332
0.0132223
0.0132112
0.0132
0.0131886
0.0131773
0.0131659
0.0131546
0.0131433
0.0131323
0.0131214
0.013111
0.013101
0.015098
0.0151099
0.0151216
0.0151334
0.0151452
0.0151571
0.0151689
0.0151807
0.0151923
0.0152038
0.0152151
0.0152262
0.0152371
0.0152477
0.015258
0.015268
0.0152777
0.0152871
0.0152962
0.0153049
0.0153133
0.0153213
0.015329
0.0153364
0.0153434
0.0153501
0.0153564
0.0153624
0.0153681
0.0153735
0.0153786
0.0153835
0.015388
0.0153923
0.0153963
0.0154001
0.0154037
0.015407
0.0154101
0.0154131
0.0154158
0.0154184
0.0154208
0.0154231
0.0154252
0.0154272
0.0154291
0.0154308
0.0154324
0.015434
0.0154354
0.0154367
0.015438
0.0154392
0.0154403
0.0154413
0.0154423
0.0154432