/*--------------------------------*- C++ -*----------------------------------*\
| =========                 |                                                 |
| \\      /  F ield         | OpenFOAM: The Open Source CFD Toolbox           |
|  \\    /   O peration     | Version:  2412                                  |
|   \\  /    A nd           | Website:  www.openfoam.com                      |
|    \\/     M anipulation  |                                                 |
\*---------------------------------------------------------------------------*/
FoamFile
{
    version     2.0;
    format      ascii;
    arch        "LSB;label=32;scalar=64";
    class       surfaceScalarField;
    location    "900";
    object      phi;
}
// * * * * * * * * * * * * * * * * * * * * * * * * * * * * * * * * * * * * * //

dimensions      [0 3 -1 0 0 0 0];

oriented        oriented;

internalField   nonuniform List<scalar> 
79600
(
-1.8534e-14
1.41358e-14
-1.41228e-12
1.39397e-12
-4.18094e-12
2.76883e-12
-7.97121e-12
3.7903e-12
-1.24028e-11
4.43198e-12
-1.71476e-11
4.74505e-12
-2.19465e-11
4.79894e-12
-2.66045e-11
4.65811e-12
-3.09811e-11
4.37625e-12
-3.49785e-11
3.99744e-12
-3.8534e-11
3.55557e-12
-4.1612e-11
3.07797e-12
-4.41979e-11
2.58578e-12
-4.62937e-11
2.09533e-12
-4.79128e-11
1.61903e-12
-4.9079e-11
1.16581e-12
-4.98212e-11
7.42357e-13
-5.01741e-11
3.52667e-13
-5.0174e-11
-3.27495e-16
-4.98591e-11
-3.15256e-13
-4.92669e-11
-5.92165e-13
-4.84351e-11
-8.31858e-13
-4.73993e-11
-1.0357e-12
-4.61935e-11
-1.20579e-12
-4.48499e-11
-1.34412e-12
-4.33967e-11
-1.45296e-12
-4.18611e-11
-1.53555e-12
-4.02668e-11
-1.59424e-12
-3.86349e-11
-1.63179e-12
-3.69843e-11
-1.65072e-12
-3.53311e-11
-1.65335e-12
-3.36889e-11
-1.64209e-12
-3.20694e-11
-1.61932e-12
-3.04823e-11
-1.58689e-12
-2.89356e-11
-1.54661e-12
-2.74355e-11
-1.5002e-12
-2.59865e-11
-1.44879e-12
-2.45923e-11
-1.39409e-12
-2.32553e-11
-1.33685e-12
-2.19771e-11
-1.27844e-12
-2.07579e-11
-1.21907e-12
-1.95982e-11
-1.15988e-12
-1.84968e-11
-1.10136e-12
-1.7453e-11
-1.04384e-12
-1.64652e-11
-9.87765e-13
-1.55315e-11
-9.33598e-13
-1.46503e-11
-8.81321e-13
-1.38193e-11
-8.31045e-13
-1.30361e-11
-7.83051e-13
-1.22985e-11
-7.37409e-13
-1.16043e-11
-6.94124e-13
-1.09512e-11
-6.5314e-13
-1.03367e-11
-6.14364e-13
-9.75871e-12
-5.77828e-13
-9.21504e-12
-5.43565e-13
-8.70365e-12
-5.11425e-13
-8.22246e-12
-4.81217e-13
-7.76954e-12
-4.52884e-13
-7.34306e-12
-4.26411e-13
-6.94126e-12
-4.01719e-13
-6.5625e-12
-3.78676e-13
-6.20525e-12
-3.57186e-13
-5.86805e-12
-3.37166e-13
-5.54953e-12
-3.18518e-13
-5.24838e-12
-3.01134e-13
-4.9634e-12
-2.84952e-13
-4.69345e-12
-2.69908e-13
-4.43748e-12
-2.55934e-13
-4.19449e-12
-2.4295e-13
-3.96358e-12
-2.3088e-13
-3.74389e-12
-2.19659e-13
-3.53462e-12
-2.09262e-13
-3.33504e-12
-1.99623e-13
-3.14445e-12
-1.90652e-13
-2.96216e-12
-1.82289e-13
-2.78756e-12
-1.74542e-13
-2.6201e-12
-1.67392e-13
-2.45928e-12
-1.60796e-13
-2.3046e-12
-1.5466e-13
-2.15561e-12
-1.49015e-13
-2.01182e-12
-1.43811e-13
-1.87287e-12
-1.39033e-13
-1.73839e-12
-1.34551e-13
-1.60795e-12
-1.3036e-13
-1.48119e-12
-1.26587e-13
-1.3578e-12
-1.2324e-13
-1.23759e-12
-1.20232e-13
-1.12026e-12
-1.17443e-13
-1.00543e-12
-1.14857e-13
-8.92824e-13
-1.1256e-13
-7.82205e-13
-1.10536e-13
-6.73343e-13
-1.0872e-13
-5.6601e-13
-1.07132e-13
-4.59959e-13
-1.05829e-13
-3.5496e-13
-1.04823e-13
-2.50842e-13
-1.04061e-13
-1.47414e-13
-1.03454e-13
-4.44048e-14
-1.02976e-13
5.84485e-14
-1.02704e-13
1.61331e-13
-1.02697e-13
2.64406e-13
-1.02927e-13
3.67873e-13
-1.03349e-13
4.71951e-13
-1.03961e-13
5.76873e-13
-1.0479e-13
6.8287e-13
-1.05863e-13
7.90151e-13
-1.0719e-13
8.9892e-13
-1.08756e-13
1.00941e-12
-1.10536e-13
1.1219e-12
-1.12516e-13
1.23663e-12
-1.14708e-13
1.35387e-12
-1.17152e-13
1.47388e-12
-1.19906e-13
1.59691e-12
-1.22992e-13
1.72325e-12
-1.26372e-13
1.85325e-12
-1.30011e-13
1.98728e-12
-1.33955e-13
2.12567e-12
-1.3828e-13
2.26876e-12
-1.43012e-13
2.41691e-12
-1.48143e-13
2.57056e-12
-1.53678e-13
2.73015e-12
-1.59653e-13
2.89617e-12
-1.66087e-13
3.06913e-12
-1.72994e-13
3.24962e-12
-1.80433e-13
3.43819e-12
-1.88472e-13
3.63542e-12
-1.97143e-13
3.84197e-12
-2.06455e-13
4.05858e-12
-2.1646e-13
4.28603e-12
-2.27259e-13
4.52512e-12
-2.38943e-13
4.7767e-12
-2.51535e-13
5.04172e-12
-2.65031e-13
5.32122e-12
-2.79459e-13
5.61633e-12
-2.94931e-13
5.92822e-12
-3.1162e-13
6.25807e-12
-3.29664e-13
6.60713e-12
-3.49097e-13
6.97682e-12
-3.69903e-13
7.36872e-12
-3.92114e-13
7.78449e-12
-4.15842e-13
8.22585e-12
-4.41243e-13
8.6946e-12
-4.68467e-13
9.19264e-12
-4.97685e-13
9.72194e-12
-5.29073e-13
1.02845e-11
-5.62679e-13
1.08825e-11
-5.98418e-13
1.15184e-11
-6.36257e-13
1.21946e-11
-6.7633e-13
1.29136e-11
-7.18852e-13
1.36779e-11
-7.63941e-13
1.44898e-11
-8.116e-13
1.53519e-11
-8.61812e-13
1.62666e-11
-9.1455e-13
1.72365e-11
-9.69736e-13
1.82637e-11
-1.02722e-12
1.93504e-11
-1.08679e-12
2.04984e-11
-1.1482e-12
2.17093e-11
-1.2111e-12
2.29841e-11
-1.27505e-12
2.43236e-11
-1.33954e-12
2.57276e-11
-1.40395e-12
2.71953e-11
-1.46754e-12
2.87251e-11
-1.52945e-12
3.03141e-11
-1.58864e-12
3.19583e-11
-1.64385e-12
3.36523e-11
-1.69368e-12
3.53891e-11
-1.73655e-12
3.71599e-11
-1.77059e-12
3.89539e-11
-1.79389e-12
4.07582e-11
-1.80426e-12
4.25574e-11
-1.79923e-12
4.43336e-11
-1.77628e-12
4.60662e-11
-1.73274e-12
4.7732e-11
-1.6658e-12
4.93045e-11
-1.57264e-12
5.07547e-11
-1.45031e-12
5.20505e-11
-1.29595e-12
5.31573e-11
-1.10693e-12
5.40381e-11
-8.80866e-13
5.46539e-11
-6.15755e-13
5.4964e-11
-3.1015e-13
5.49273e-11
3.66434e-14
5.45029e-11
4.24351e-13
5.36514e-11
8.51482e-13
5.23364e-11
1.31497e-12
5.05264e-11
1.80992e-12
4.81973e-11
2.32904e-12
4.5335e-11
2.86223e-12
4.19391e-11
3.39586e-12
3.8027e-11
3.91202e-12
3.36394e-11
4.38758e-12
2.88464e-11
4.7929e-12
2.37559e-11
5.0905e-12
1.8523e-11
5.23308e-12
1.33611e-11
5.16222e-12
8.55257e-12
4.80879e-12
4.454e-12
4.09878e-12
1.4753e-12
2.97873e-12
-6.62052e-15
1.48201e-12
-6.60819e-15
-1.47664e-12
1.49064e-12
-6.18083e-12
6.09787e-12
-1.37981e-11
1.0386e-11
-2.36388e-11
1.36307e-11
-3.49479e-11
1.5741e-11
-4.70312e-11
1.68282e-11
-5.93032e-11
1.70711e-11
-7.12968e-11
1.6652e-11
-8.26557e-11
1.57354e-11
-9.31203e-11
1.44616e-11
-1.02512e-10
1.29473e-11
-1.1072e-10
1.12866e-11
-1.17689e-10
9.55527e-12
-1.23407e-10
7.81324e-12
-1.27895e-10
6.10714e-12
-1.31201e-10
4.47224e-12
-1.33393e-10
2.93446e-12
-1.34551e-10
1.51129e-12
-1.34765e-10
2.14535e-13
-1.34131e-10
-9.49692e-13
-1.32744e-10
-1.97921e-12
-1.307e-10
-2.87537e-12
-1.28093e-10
-3.6425e-12
-1.25012e-10
-4.28634e-12
-1.21541e-10
-4.81498e-12
-1.17758e-10
-5.23636e-12
-1.13734e-10
-5.55972e-12
-1.09534e-10
-5.79436e-12
-1.05215e-10
-5.95015e-12
-1.0083e-10
-6.03623e-12
-9.64215e-11
-6.06156e-12
-9.20295e-11
-6.03455e-12
-8.76862e-11
-5.963e-12
-8.3419e-11
-5.85435e-12
-7.92504e-11
-5.71547e-12
-7.51985e-11
-5.55227e-12
-7.12776e-11
-5.3701e-12
-6.74979e-11
-5.17374e-12
-6.38674e-11
-4.96754e-12
-6.03906e-11
-4.75516e-12
-5.70701e-11
-4.53925e-12
-5.39072e-11
-4.32337e-12
-5.08997e-11
-4.10852e-12
-4.80462e-11
-3.89727e-12
-4.53432e-11
-3.69115e-12
-4.27858e-11
-3.49068e-12
-4.03696e-11
-3.29723e-12
-3.80894e-11
-3.11155e-12
-3.59391e-11
-2.93365e-12
-3.39125e-11
-2.76392e-12
-3.20038e-11
-2.60278e-12
-3.0207e-11
-2.45009e-12
-2.85158e-11
-2.30561e-12
-2.69243e-11
-2.16932e-12
-2.54266e-11
-2.04112e-12
-2.40172e-11
-1.9207e-12
-2.26906e-11
-1.80774e-12
-2.14416e-11
-1.70192e-12
-2.02654e-11
-1.60288e-12
-1.91569e-11
-1.51026e-12
-1.81118e-11
-1.42376e-12
-1.71258e-11
-1.34307e-12
-1.6195e-11
-1.26789e-12
-1.53157e-11
-1.19786e-12
-1.44843e-11
-1.13264e-12
-1.36975e-11
-1.07192e-12
-1.29521e-11
-1.01542e-12
-1.22454e-11
-9.62853e-13
-1.15744e-11
-9.13973e-13
-1.09368e-11
-8.68548e-13
-1.03302e-11
-8.26344e-13
-9.75238e-12
-7.87169e-13
-9.20127e-12
-7.50821e-13
-8.67497e-12
-7.17093e-13
-8.17169e-12
-6.85752e-13
-7.68974e-12
-6.5667e-13
-7.22753e-12
-6.29698e-13
-6.78361e-12
-6.04757e-13
-6.35667e-12
-5.81676e-13
-5.94541e-12
-5.60341e-13
-5.54857e-12
-5.40654e-13
-5.16503e-12
-5.22552e-13
-4.79385e-12
-5.05915e-13
-4.43403e-12
-4.90535e-13
-4.08449e-12
-4.76352e-13
-3.74424e-12
-4.63413e-13
-3.41252e-12
-4.51729e-13
-3.08865e-12
-4.41207e-13
-2.77185e-12
-4.31709e-13
-2.4613e-12
-4.23172e-13
-2.15625e-12
-4.15588e-13
-1.85607e-12
-4.08926e-13
-1.56014e-12
-4.03127e-13
-1.26778e-12
-3.98164e-13
-9.783e-13
-3.94075e-13
-6.91131e-13
-3.90899e-13
-4.05774e-13
-3.88592e-13
-1.21663e-13
-3.87055e-13
1.61878e-13
-3.86245e-13
4.4549e-13
-3.86201e-13
7.29707e-13
-3.86979e-13
1.01503e-12
-3.88597e-13
1.30202e-12
-3.91022e-13
1.59132e-12
-3.94216e-13
1.88356e-12
-3.9819e-13
2.17939e-12
-4.02997e-13
2.47941e-12
-4.08691e-13
2.78425e-12
-4.15294e-13
3.09459e-12
-4.2281e-13
3.41109e-12
-4.31251e-13
3.73444e-12
-4.40644e-13
4.06541e-12
-4.51049e-13
4.40483e-12
-4.62547e-13
4.75352e-12
-4.75185e-13
5.1123e-12
-4.88971e-13
5.4821e-12
-5.03944e-13
5.86394e-12
-5.20211e-13
6.25881e-12
-5.37886e-13
6.66779e-12
-5.57063e-13
7.09199e-12
-5.77831e-13
7.53265e-12
-6.003e-13
7.99107e-12
-6.24559e-13
8.46868e-12
-6.50678e-13
8.96701e-12
-6.78784e-13
9.48769e-12
-7.09073e-13
1.00324e-11
-7.41746e-13
1.06028e-11
-7.76946e-13
1.1201e-11
-8.14794e-13
1.18291e-11
-8.55469e-13
1.24894e-11
-8.99225e-13
1.31844e-11
-9.46341e-13
1.39165e-11
-9.97061e-13
1.46886e-11
-1.05157e-12
1.55035e-11
-1.11005e-12
1.63646e-11
-1.17278e-12
1.72753e-11
-1.24018e-12
1.82393e-11
-1.31268e-12
1.92602e-11
-1.39061e-12
2.03423e-11
-1.47419e-12
2.149e-11
-1.56371e-12
2.27079e-11
-1.65952e-12
2.40008e-11
-1.76195e-12
2.5374e-11
-1.87134e-12
2.68332e-11
-1.9882e-12
2.83841e-11
-2.11306e-12
3.00324e-11
-2.24628e-12
3.17842e-11
-2.38798e-12
3.36458e-11
-2.5383e-12
3.5624e-11
-2.69746e-12
3.77254e-11
-2.86568e-12
3.99565e-11
-3.04303e-12
4.2324e-11
-3.22951e-12
4.48344e-11
-3.42494e-12
4.74938e-11
-3.62902e-12
5.03081e-11
-3.84123e-12
5.32825e-11
-4.0608e-12
5.64215e-11
-4.28676e-12
5.97287e-11
-4.51784e-12
6.32063e-11
-4.7524e-12
6.68553e-11
-4.98839e-12
7.06744e-11
-5.22331e-12
7.46608e-11
-5.45422e-12
7.88086e-11
-5.67769e-12
8.31092e-11
-5.88973e-12
8.75506e-11
-6.08567e-12
9.21168e-11
-6.26026e-12
9.67875e-11
-6.40753e-12
1.01538e-10
-6.52078e-12
1.06336e-10
-6.5927e-12
1.11148e-10
-6.61532e-12
1.15929e-10
-6.57992e-12
1.2063e-10
-6.47723e-12
1.25195e-10
-6.29749e-12
1.2956e-10
-6.03058e-12
1.33655e-10
-5.66637e-12
1.374e-10
-5.19471e-12
1.4071e-10
-4.60571e-12
1.43493e-10
-3.89032e-12
1.45653e-10
-3.04053e-12
1.47087e-10
-2.05008e-12
1.47692e-10
-9.14936e-13
1.47363e-10
3.66037e-13
1.45997e-10
1.79015e-12
1.43498e-10
3.35012e-12
1.39781e-10
5.03276e-12
1.34773e-10
6.81786e-12
1.28425e-10
8.6767e-12
1.20717e-10
1.05703e-11
1.11666e-10
1.24474e-11
1.01336e-10
1.42423e-11
8.98516e-11
1.58719e-11
7.74116e-11
1.7233e-11
6.43026e-11
1.81993e-11
5.09165e-11
1.8619e-11
3.7764e-11
1.83144e-11
2.54826e-11
1.70901e-11
1.48255e-11
1.47561e-11
6.60618e-12
1.11983e-11
1.55977e-12
6.52878e-12
1.55319e-12
-2.99443e-12
4.48515e-12
-1.08896e-11
1.39936e-11
-2.27377e-11
2.22339e-11
-3.75437e-11
2.8437e-11
-5.43218e-11
3.2519e-11
-7.21659e-11
3.4672e-11
-9.02928e-11
3.51977e-11
-1.08058e-10
3.44171e-11
-1.24953e-10
3.26308e-11
-1.40596e-10
3.0105e-11
-1.54716e-10
2.70666e-11
-1.67135e-10
2.3705e-11
-1.77755e-10
2.0175e-11
-1.86542e-10
1.66007e-11
-1.93515e-10
1.30805e-11
-1.98733e-10
9.68994e-12
-2.02285e-10
6.48582e-12
-2.04282e-10
3.50815e-12
-2.04851e-10
7.83635e-13
-2.04129e-10
-1.67229e-12
-2.02255e-10
-3.85305e-12
-1.99371e-10
-5.75966e-12
-1.95615e-10
-7.39918e-12
-1.9112e-10
-8.78218e-12
-1.86011e-10
-9.92395e-12
-1.80406e-10
-1.0841e-11
-1.74413e-10
-1.15519e-11
-1.68132e-10
-1.20756e-11
-1.61651e-10
-1.24315e-11
-1.55049e-10
-1.26387e-11
-1.48394e-10
-1.27161e-11
-1.41747e-10
-1.26812e-11
-1.3516e-10
-1.25505e-11
-1.28675e-10
-1.23394e-11
-1.22328e-10
-1.20624e-11
-1.16148e-10
-1.17316e-11
-1.10159e-10
-1.13595e-11
-1.04377e-10
-1.09555e-11
-9.88162e-11
-1.05288e-11
-9.34839e-11
-1.00874e-11
-8.83858e-11
-9.63777e-12
-8.35233e-11
-9.18575e-12
-7.88961e-11
-8.73586e-12
-7.45014e-11
-8.29216e-12
-7.03343e-11
-7.85805e-12
-6.6389e-11
-7.43586e-12
-6.26588e-11
-7.02761e-12
-5.91355e-11
-6.63474e-12
-5.58107e-11
-6.25827e-12
-5.26757e-11
-5.89895e-12
-4.97214e-11
-5.55714e-12
-4.69385e-11
-5.23286e-12
-4.4318e-11
-4.92605e-12
-4.1851e-11
-4.63648e-12
-3.95285e-11
-4.36369e-12
-3.73419e-11
-4.10718e-12
-3.52832e-11
-3.86643e-12
-3.33442e-11
-3.64083e-12
-3.15175e-11
-3.42962e-12
-2.97957e-11
-3.23206e-12
-2.8172e-11
-3.04749e-12
-2.66399e-11
-2.87522e-12
-2.51932e-11
-2.71457e-12
-2.38262e-11
-2.56482e-12
-2.25335e-11
-2.42535e-12
-2.131e-11
-2.29551e-12
-2.01508e-11
-2.17467e-12
-1.90514e-11
-2.06223e-12
-1.80078e-11
-1.95766e-12
-1.70159e-11
-1.86046e-12
-1.60722e-11
-1.77016e-12
-1.51732e-11
-1.68626e-12
-1.43158e-11
-1.60834e-12
-1.34968e-11
-1.53601e-12
-1.27137e-11
-1.46892e-12
-1.19637e-11
-1.40668e-12
-1.12445e-11
-1.34898e-12
-1.05537e-11
-1.29554e-12
-9.88937e-12
-1.24614e-12
-9.24944e-12
-1.20043e-12
-8.63201e-12
-1.15818e-12
-8.03525e-12
-1.11921e-12
-7.45754e-12
-1.08343e-12
-6.89747e-12
-1.05062e-12
-6.35354e-12
-1.02048e-12
-5.82426e-12
-9.92878e-13
-5.30827e-12
-9.6776e-13
-4.80437e-12
-9.45067e-13
-4.31142e-12
-9.24648e-13
-3.8282e-12
-9.06323e-13
-3.35357e-12
-8.90037e-13
-2.88647e-12
-8.758e-13
-2.42599e-12
-8.63532e-13
-1.97116e-12
-8.53093e-13
-1.52092e-12
-8.44406e-13
-1.07427e-12
-8.37489e-13
-6.30317e-13
-8.32378e-13
-1.88217e-13
-8.29031e-13
2.52944e-13
-8.27356e-13
6.94124e-13
-8.27317e-13
1.13623e-12
-8.2897e-13
1.58012e-12
-8.32374e-13
2.02669e-12
-8.37531e-13
2.47686e-12
-8.44412e-13
2.93158e-12
-8.53013e-13
3.3918e-12
-8.63372e-13
3.85854e-12
-8.75547e-13
4.33282e-12
-8.89602e-13
4.81569e-12
-9.05613e-13
5.30818e-12
-9.23668e-13
5.81136e-12
-9.4384e-13
6.32638e-12
-9.66186e-13
6.85455e-12
-9.90784e-13
7.39719e-12
-1.01777e-12
7.9556e-12
-1.0473e-12
8.53116e-12
-1.0795e-12
9.12538e-12
-1.1145e-12
9.73988e-12
-1.15246e-12
1.03763e-11
-1.19359e-12
1.10365e-11
-1.23808e-12
1.17223e-11
-1.28616e-12
1.24358e-11
-1.33807e-12
1.31792e-11
-1.39404e-12
1.39548e-11
-1.45435e-12
1.47651e-11
-1.51929e-12
1.56127e-11
-1.58924e-12
1.65006e-11
-1.6646e-12
1.74316e-11
-1.74573e-12
1.8409e-11
-1.83297e-12
1.94364e-11
-1.92674e-12
2.05176e-11
-2.02754e-12
2.16566e-11
-2.13593e-12
2.28578e-11
-2.25252e-12
2.41256e-11
-2.3778e-12
2.54649e-11
-2.5123e-12
2.6881e-11
-2.65663e-12
2.83796e-11
-2.81152e-12
2.99666e-11
-2.97772e-12
3.16485e-11
-3.15592e-12
3.3432e-11
-3.34689e-12
3.53242e-11
-3.55142e-12
3.73326e-11
-3.77028e-12
3.94649e-11
-4.00411e-12
4.17297e-11
-4.25358e-12
4.41357e-11
-4.51949e-12
4.66921e-11
-4.80267e-12
4.94081e-11
-5.10378e-12
5.22933e-11
-5.42327e-12
5.53576e-11
-5.76151e-12
5.8611e-11
-6.11877e-12
6.20632e-11
-6.49515e-12
6.57242e-11
-6.89048e-12
6.96035e-11
-7.30432e-12
7.37101e-11
-7.73588e-12
7.80525e-11
-8.18396e-12
8.26382e-11
-8.64684e-12
8.74734e-11
-9.12227e-12
9.25629e-11
-9.60743e-12
9.79093e-11
-1.00988e-11
1.03513e-10
-1.05919e-11
1.09372e-10
-1.10815e-11
1.15479e-10
-1.15611e-11
1.21825e-10
-1.20235e-11
1.28395e-10
-1.24598e-11
1.3517e-10
-1.28603e-11
1.42124e-10
-1.32135e-11
1.49223e-10
-1.3507e-11
1.56429e-10
-1.37265e-11
1.63692e-10
-1.38564e-11
1.70957e-10
-1.388e-11
1.78156e-10
-1.37791e-11
1.85213e-10
-1.35343e-11
1.9204e-10
-1.31256e-11
1.98542e-10
-1.2532e-11
2.04608e-10
-1.17325e-11
2.10119e-10
-1.07068e-11
2.14949e-10
-9.43489e-12
2.18957e-10
-7.899e-12
2.22e-10
-6.08371e-12
2.23928e-10
-3.97743e-12
2.24586e-10
-1.57352e-12
2.23824e-10
1.1282e-12
2.21494e-10
4.11974e-12
2.17461e-10
7.38318e-12
2.11605e-10
1.08882e-11
2.03833e-10
1.45897e-11
1.94085e-10
1.84249e-11
1.82345e-10
2.23102e-11
1.68654e-10
2.61376e-11
1.53126e-10
2.97703e-11
1.35959e-10
3.30393e-11
1.17454e-10
3.57383e-11
9.80327e-11
3.76207e-11
7.82531e-11
3.83988e-11
5.88193e-11
3.77483e-11
4.05836e-11
3.53256e-11
2.45281e-11
3.08117e-11
1.17151e-11
2.40112e-11
3.20679e-12
1.50373e-11
4.76003e-12
-4.21823e-12
8.70309e-12
-1.47801e-11
2.45561e-11
-3.01368e-11
3.75903e-11
-4.89713e-11
4.7272e-11
-7.00997e-11
5.36475e-11
-9.2468e-11
5.70405e-11
-1.15167e-10
5.78965e-11
-1.37438e-10
5.6688e-11
-1.58673e-10
5.38658e-11
-1.78404e-10
4.98364e-11
-1.9629e-10
4.4953e-11
-2.12102e-10
3.95167e-11
-2.25704e-10
3.37769e-11
-2.37041e-10
2.79375e-11
-2.46122e-10
2.21614e-11
-2.53007e-10
1.65755e-11
-2.57798e-10
1.12766e-11
-2.60624e-10
6.33437e-12
-2.61636e-10
1.7965e-12
-2.61e-10
-2.30799e-12
-2.58887e-10
-5.96586e-12
-2.55472e-10
-9.17549e-12
-2.50924e-10
-1.19461e-11
-2.45413e-10
-1.42941e-11
-2.39095e-10
-1.62421e-11
-2.32119e-10
-1.78165e-11
-2.24624e-10
-1.90469e-11
-2.16735e-10
-1.99642e-11
-2.08567e-10
-2.05996e-11
-2.00221e-10
-2.09848e-11
-1.91787e-10
-2.11502e-11
-1.83343e-10
-2.11251e-11
-1.74957e-10
-2.0937e-11
-1.66685e-10
-2.06119e-11
-1.58574e-10
-2.01726e-11
-1.50665e-10
-1.96415e-11
-1.42987e-10
-1.90376e-11
-1.35564e-10
-1.83777e-11
-1.28416e-10
-1.76779e-11
-1.21552e-10
-1.69503e-11
-1.14983e-10
-1.62075e-11
-1.0871e-10
-1.54583e-11
-1.02735e-10
-1.47113e-11
-9.70543e-11
-1.39732e-11
-9.1663e-11
-1.32492e-11
-8.65543e-11
-1.25443e-11
-8.17201e-11
-1.18619e-11
-7.71507e-11
-1.12042e-11
-7.28357e-11
-1.05733e-11
-6.87643e-11
-9.97046e-12
-6.4925e-11
-9.39639e-12
-6.13064e-11
-8.85131e-12
-5.78971e-11
-8.33525e-12
-5.46857e-11
-7.84783e-12
-5.16611e-11
-7.38835e-12
-4.88123e-11
-6.95602e-12
-4.61288e-11
-6.54998e-12
-4.36004e-11
-6.16918e-12
-4.12175e-11
-5.81251e-12
-3.89707e-11
-5.4788e-12
-3.68512e-11
-5.16693e-12
-3.48507e-11
-4.87572e-12
-3.29613e-11
-4.60401e-12
-3.11755e-11
-4.35067e-12
-2.94863e-11
-4.11459e-12
-2.78871e-11
-3.89473e-12
-2.63718e-11
-3.69006e-12
-2.49344e-11
-3.4996e-12
-2.35696e-11
-3.32243e-12
-2.22724e-11
-3.15772e-12
-2.10379e-11
-3.00466e-12
-1.98618e-11
-2.86243e-12
-1.87399e-11
-2.73031e-12
-1.76684e-11
-2.60761e-12
-1.66435e-11
-2.49377e-12
-1.56619e-11
-2.38818e-12
-1.47206e-11
-2.29029e-12
-1.38165e-11
-2.19964e-12
-1.29468e-11
-2.11577e-12
-1.2109e-11
-2.03826e-12
-1.13007e-11
-1.96663e-12
-1.05196e-11
-1.9005e-12
-9.76334e-12
-1.83963e-12
-9.02999e-12
-1.78381e-12
-8.31771e-12
-1.7327e-12
-7.62467e-12
-1.68597e-12
-6.94911e-12
-1.64341e-12
-6.28935e-12
-1.60488e-12
-5.64384e-12
-1.57019e-12
-5.01112e-12
-1.53912e-12
-4.38971e-12
-1.51149e-12
-3.77816e-12
-1.48724e-12
-3.17514e-12
-1.46634e-12
-2.57946e-12
-1.44867e-12
-1.98987e-12
-1.43405e-12
-1.40507e-12
-1.42238e-12
-8.23783e-13
-1.41366e-12
-2.44839e-13
-1.4079e-12
3.3291e-13
-1.40505e-12
9.10623e-13
-1.40505e-12
1.48948e-12
-1.40791e-12
2.0707e-12
-1.41366e-12
2.65548e-12
-1.42232e-12
3.24502e-12
-1.43392e-12
3.84052e-12
-1.44851e-12
4.44323e-12
-1.46613e-12
5.05446e-12
-1.48685e-12
5.67553e-12
-1.51074e-12
6.30781e-12
-1.53793e-12
6.95269e-12
-1.56855e-12
7.61162e-12
-1.60279e-12
8.28609e-12
-1.64074e-12
8.97773e-12
-1.68252e-12
9.68827e-12
-1.72832e-12
1.04195e-11
-1.77842e-12
1.11731e-11
-1.83306e-12
1.19513e-11
-1.89249e-12
1.27559e-11
-1.95699e-12
1.35892e-11
-2.02687e-12
1.44536e-11
-2.10245e-12
1.53514e-11
-2.18408e-12
1.62856e-11
-2.27217e-12
1.72588e-11
-2.36718e-12
1.82741e-11
-2.4696e-12
1.93346e-11
-2.5799e-12
2.0444e-11
-2.69862e-12
2.16059e-11
-2.82641e-12
2.28242e-11
-2.96395e-12
2.41031e-11
-3.11193e-12
2.54473e-11
-3.27102e-12
2.68616e-11
-3.44198e-12
2.83512e-11
-3.62568e-12
2.99219e-11
-3.82305e-12
3.15794e-11
-4.03514e-12
3.33303e-11
-4.26293e-12
3.5181e-11
-4.50747e-12
3.71391e-11
-4.76981e-12
3.92122e-11
-5.05109e-12
4.14085e-11
-5.35249e-12
4.37367e-11
-5.67526e-12
4.62061e-11
-6.0207e-12
4.88263e-11
-6.3902e-12
5.16075e-11
-6.78502e-12
5.45602e-11
-7.2063e-12
5.76956e-11
-7.65512e-12
6.10252e-11
-8.13262e-12
6.45611e-11
-8.63985e-12
6.83153e-11
-9.17765e-12
7.23003e-11
-9.7466e-12
7.65287e-11
-1.03471e-11
8.10129e-11
-1.09791e-11
8.5765e-11
-1.16424e-11
9.07969e-11
-1.2336e-11
9.61197e-11
-1.30585e-11
1.01744e-10
-1.38077e-11
1.07678e-10
-1.45807e-11
1.13929e-10
-1.53734e-11
1.20502e-10
-1.6181e-11
1.274e-10
-1.69971e-11
1.34622e-10
-1.78143e-11
1.42164e-10
-1.86233e-11
1.50016e-10
-1.94135e-11
1.58165e-10
-2.0172e-11
1.66589e-10
-2.08843e-11
1.75262e-10
-2.15336e-11
1.8415e-10
-2.21008e-11
1.93207e-10
-2.25647e-11
2.02383e-10
-2.29017e-11
2.11612e-10
-2.30858e-11
2.20821e-10
-2.30888e-11
2.29923e-10
-2.28808e-11
2.38818e-10
-2.24296e-11
2.47395e-10
-2.17023e-11
2.55528e-10
-2.06648e-11
2.63078e-10
-1.92829e-11
2.69895e-10
-1.75234e-11
2.75815e-10
-1.53548e-11
2.80665e-10
-1.27489e-11
2.84263e-10
-9.68216e-12
2.86423e-10
-6.13748e-12
2.86956e-10
-2.10648e-12
2.85676e-10
2.40827e-12
2.82406e-10
7.39029e-12
2.76983e-10
1.28063e-11
2.69269e-10
1.86024e-11
2.59158e-10
2.47006e-11
2.46589e-10
3.09938e-11
2.31558e-10
3.73416e-11
2.14131e-10
4.35647e-11
1.94461e-10
4.94397e-11
1.72806e-10
5.4694e-11
1.49544e-10
5.90005e-11
1.2519e-10
6.19751e-11
1.0041e-10
6.31784e-11
7.60335e-11
6.2125e-11
5.30492e-11
5.83099e-11
3.2599e-11
5.1262e-11
1.59601e-11
4.06501e-11
4.54306e-12
2.64543e-11
9.30317e-12
-5.10482e-12
1.38077e-11
-1.77035e-11
3.7155e-11
-3.57891e-11
5.5676e-11
-5.77582e-11
6.92415e-11
-8.22495e-11
7.81391e-11
-1.08092e-10
8.28829e-11
-1.34287e-10
8.40915e-11
-1.60002e-10
8.2403e-11
-1.84563e-10
7.84274e-11
-2.07447e-10
7.272e-11
-2.28263e-10
6.57697e-11
-2.46743e-10
5.79972e-11
-2.62724e-10
4.97572e-11
-2.76128e-10
4.13421e-11
-2.86955e-10
3.29881e-11
-2.95261e-10
2.48823e-11
-3.01152e-10
1.71676e-11
-3.04768e-10
9.94976e-12
-3.06273e-10
3.30207e-12
-3.05852e-10
-2.72918e-12
-3.03697e-10
-8.12083e-12
-3.00005e-10
-1.28676e-11
-2.94971e-10
-1.69799e-11
-2.88786e-10
-2.04787e-11
-2.81634e-10
-2.33946e-11
-2.73686e-10
-2.57646e-11
-2.65103e-10
-2.76301e-11
-2.56031e-10
-2.90351e-11
-2.46606e-10
-3.00247e-11
-2.36947e-10
-3.06442e-11
-2.2716e-10
-3.09371e-11
-2.17339e-10
-3.09467e-11
-2.07563e-10
-3.07127e-11
-1.97902e-10
-3.0273e-11
-1.88413e-10
-2.9662e-11
-1.79143e-10
-2.89116e-11
-1.7013e-10
-2.805e-11
-1.61405e-10
-2.71029e-11
-1.5299e-10
-2.60931e-11
-1.44901e-10
-2.50396e-11
-1.37149e-10
-2.39601e-11
-1.29738e-10
-2.28688e-11
-1.22671e-10
-2.17782e-11
-1.15946e-10
-2.06987e-11
-1.09557e-10
-1.96383e-11
-1.03497e-10
-1.86039e-11
-9.77581e-11
-1.7601e-11
-9.23288e-11
-1.66335e-11
-8.71979e-11
-1.57044e-11
-8.23529e-11
-1.48156e-11
-7.77809e-11
-1.39684e-11
-7.3469e-11
-1.31633e-11
-6.94038e-11
-1.24004e-11
-6.55723e-11
-1.16793e-11
-6.19615e-11
-1.09991e-11
-5.85588e-11
-1.03587e-11
-5.5352e-11
-9.75692e-12
-5.23291e-11
-9.19216e-12
-4.94787e-11
-8.66287e-12
-4.67901e-11
-8.16746e-12
-4.42528e-11
-7.70423e-12
-4.1857e-11
-7.27151e-12
-3.95934e-11
-6.86759e-12
-3.74533e-11
-6.49085e-12
-3.54283e-11
-6.13967e-12
-3.35106e-11
-5.81247e-12
-3.16929e-11
-5.50778e-12
-2.99684e-11
-5.22417e-12
-2.83305e-11
-4.9603e-12
-2.67734e-11
-4.71491e-12
-2.52913e-11
-4.48678e-12
-2.3879e-11
-4.27478e-12
-2.25315e-11
-4.07781e-12
-2.12443e-11
-3.89489e-12
-2.00129e-11
-3.7251e-12
-1.88335e-11
-3.5676e-12
-1.77023e-11
-3.4216e-12
-1.66156e-11
-3.28633e-12
-1.55702e-11
-3.1611e-12
-1.4563e-11
-3.04538e-12
-1.35911e-11
-2.93851e-12
-1.26518e-11
-2.83992e-12
-1.17425e-11
-2.74912e-12
-1.08607e-11
-2.66569e-12
-1.0004e-11
-2.58931e-12
-9.17043e-12
-2.51957e-12
-8.35787e-12
-2.45607e-12
-7.56428e-12
-2.39853e-12
-6.78774e-12
-2.3467e-12
-6.02652e-12
-2.30034e-12
-5.27896e-12
-2.2592e-12
-4.54334e-12
-2.22305e-12
-3.81795e-12
-2.19178e-12
-3.10125e-12
-2.16529e-12
-2.39181e-12
-2.14346e-12
-1.68819e-12
-2.12611e-12
-9.88849e-13
-2.11313e-12
-2.923e-13
-2.10449e-12
4.02863e-13
-2.10019e-12
1.098e-12
-2.10022e-12
1.79449e-12
-2.10455e-12
2.4938e-12
-2.11316e-12
3.19739e-12
-2.12608e-12
3.90671e-12
-2.14336e-12
4.62322e-12
-2.1651e-12
5.3484e-12
-2.19138e-12
6.08383e-12
-2.22232e-12
6.83108e-12
-2.25803e-12
7.59175e-12
-2.29866e-12
8.36756e-12
-2.34441e-12
9.16027e-12
-2.3955e-12
9.97171e-12
-2.45215e-12
1.08038e-11
-2.51457e-12
1.16585e-11
-2.58303e-12
1.2538e-11
-2.65788e-12
1.34444e-11
-2.73949e-12
1.43802e-11
-2.82824e-12
1.53479e-11
-2.92455e-12
1.63499e-11
-3.02888e-12
1.73893e-11
-3.14173e-12
1.84688e-11
-3.26362e-12
1.95918e-11
-3.39514e-12
2.07616e-11
-3.53695e-12
2.19819e-11
-3.68979e-12
2.32565e-11
-3.85443e-12
2.45894e-11
-4.03165e-12
2.59852e-11
-4.2223e-12
2.74486e-11
-4.42738e-12
2.89846e-11
-4.64795e-12
3.05987e-11
-4.8851e-12
3.22966e-11
-5.13999e-12
3.40844e-11
-5.41381e-12
3.5969e-11
-5.70787e-12
3.79574e-11
-6.02362e-12
4.00571e-11
-6.36263e-12
4.22761e-11
-6.72646e-12
4.4623e-11
-7.11672e-12
4.7107e-11
-7.53507e-12
4.97377e-11
-7.98327e-12
5.25253e-11
-8.46308e-12
5.54805e-11
-8.97629e-12
5.8615e-11
-9.52478e-12
6.19406e-11
-1.01105e-11
6.54696e-11
-1.07352e-11
6.92152e-11
-1.14006e-11
7.31906e-11
-1.21081e-11
7.74099e-11
-1.28591e-11
8.1887e-11
-1.36548e-11
8.66364e-11
-1.4496e-11
9.16724e-11
-1.53831e-11
9.70092e-11
-1.63161e-11
1.02661e-10
-1.72941e-11
1.0864e-10
-1.83158e-11
1.1496e-10
-1.93788e-11
1.21632e-10
-2.04796e-11
1.28666e-10
-2.16138e-11
1.36068e-10
-2.27754e-11
1.43843e-10
-2.39566e-11
1.51994e-10
-2.51481e-11
1.60518e-10
-2.63385e-11
1.69409e-10
-2.75139e-11
1.78654e-10
-2.86582e-11
1.88234e-10
-2.97525e-11
1.98125e-10
-3.0775e-11
2.08292e-10
-3.17007e-11
2.18692e-10
-3.25015e-11
2.29273e-10
-3.3146e-11
2.39971e-10
-3.35994e-11
2.50709e-10
-3.38236e-11
2.61397e-10
-3.37776e-11
2.71934e-10
-3.34174e-11
2.82201e-10
-3.26967e-11
2.92066e-10
-3.15673e-11
3.01381e-10
-2.99806e-11
3.09986e-10
-2.78876e-11
3.17704e-10
-2.5241e-11
3.24345e-10
-2.19967e-11
3.29712e-10
-1.81153e-11
3.33595e-10
-1.35651e-11
3.35781e-10
-8.324e-12
3.36058e-10
-2.38311e-12
3.34216e-10
4.25017e-12
3.30058e-10
1.15478e-11
3.23407e-10
1.94571e-11
3.14114e-10
2.78954e-11
3.0207e-10
3.6745e-11
2.87216e-10
4.58471e-11
2.69562e-10
5.49957e-11
2.49196e-10
6.39306e-11
2.26305e-10
7.23317e-11
2.01187e-10
7.9812e-11
1.74273e-10
8.59138e-11
1.46142e-10
9.01063e-11
1.1753e-10
9.17895e-11
8.93481e-11
9.03074e-11
6.26804e-11
8.49775e-11
3.87971e-11
7.51455e-11
1.91678e-11
6.02792e-11
5.51735e-12
4.01047e-11
1.48206e-11
-5.68853e-12
1.94966e-11
-1.9711e-11
5.11773e-11
-3.97613e-11
7.57264e-11
-6.40165e-11
9.34965e-11
-9.097e-11
1.05093e-10
-1.19356e-10
1.11269e-10
-1.48111e-10
1.12846e-10
-1.76352e-10
1.10644e-10
-2.03364e-10
1.0544e-10
-2.28587e-10
9.79426e-11
-2.51599e-10
8.87819e-11
-2.72105e-10
7.85031e-11
-2.89918e-10
6.75707e-11
-3.04948e-10
5.63709e-11
-3.17179e-10
4.52195e-11
-3.26665e-10
3.4368e-11
-3.33508e-10
2.40113e-11
-3.37853e-10
1.42947e-11
-3.39872e-10
5.32085e-12
-3.39757e-10
-2.84381e-12
-3.37715e-10
-1.01632e-11
-3.33956e-10
-1.66267e-11
-3.28692e-10
-2.22441e-11
-3.22129e-10
-2.70411e-11
-3.14468e-10
-3.1056e-11
-3.05897e-10
-3.4336e-11
-2.96592e-10
-3.69347e-11
-2.86717e-10
-3.89099e-11
-2.76421e-10
-4.03213e-11
-2.65836e-10
-4.12283e-11
-2.55083e-10
-4.16904e-11
-2.44266e-10
-4.17638e-11
-2.33476e-10
-4.15029e-11
-2.22791e-10
-4.09581e-11
-2.12277e-10
-4.01763e-11
-2.01988e-10
-3.92004e-11
-1.91969e-10
-3.80689e-11
-1.82255e-10
-3.68171e-11
-1.72872e-10
-3.54752e-11
-1.63841e-10
-3.40708e-11
-1.55175e-10
-3.26264e-11
-1.46881e-10
-3.11629e-11
-1.38963e-10
-2.9697e-11
-1.31418e-10
-2.82428e-11
-1.24244e-10
-2.68124e-11
-1.17433e-10
-2.54151e-11
-1.10976e-10
-2.4058e-11
-1.04862e-10
-2.27474e-11
-9.90791e-11
-2.14874e-11
-9.36137e-11
-2.02809e-11
-8.84524e-11
-1.91297e-11
-8.35809e-11
-1.80349e-11
-7.89849e-11
-1.69965e-11
-7.465e-11
-1.60141e-11
-7.05622e-11
-1.50869e-11
-6.67076e-11
-1.42134e-11
-6.30726e-11
-1.33919e-11
-5.96441e-11
-1.26206e-11
-5.64097e-11
-1.18973e-11
-5.33571e-11
-1.122e-11
-5.0475e-11
-1.05864e-11
-4.77523e-11
-9.99416e-12
-4.51788e-11
-9.44114e-12
-4.27445e-11
-8.92511e-12
-4.04403e-11
-8.4439e-12
-3.82574e-11
-7.99541e-12
-3.61875e-11
-7.5776e-12
-3.42231e-11
-7.18861e-12
-3.23568e-11
-6.82657e-12
-3.0582e-11
-6.48978e-12
-2.88922e-11
-6.17657e-12
-2.72815e-11
-5.88542e-12
-2.57444e-11
-5.61488e-12
-2.42756e-11
-5.36359e-12
-2.28704e-11
-5.13028e-12
-2.15241e-11
-4.91383e-12
-2.02325e-11
-4.71317e-12
-1.89916e-11
-4.52722e-12
-1.77978e-11
-4.35503e-12
-1.66472e-11
-4.19578e-12
-1.55368e-11
-4.04874e-12
-1.44635e-11
-3.91318e-12
-1.34244e-11
-3.78835e-12
-1.24166e-11
-3.6736e-12
-1.14374e-11
-3.56846e-12
-1.04845e-11
-3.47248e-12
-9.5555e-12
-3.38513e-12
-8.64816e-12
-3.30594e-12
-7.76027e-12
-3.23457e-12
-6.8898e-12
-3.17073e-12
-6.03484e-12
-3.11414e-12
-5.19352e-12
-3.06449e-12
-4.36395e-12
-3.02151e-12
-3.54429e-12
-2.985e-12
-2.73283e-12
-2.95488e-12
-1.92794e-12
-2.93101e-12
-1.12798e-12
-2.9132e-12
-3.31247e-13
-2.90133e-12
4.63893e-13
-2.89539e-12
1.25904e-12
-2.8954e-12
2.05579e-12
-2.90136e-12
2.85576e-12
-2.91322e-12
3.66061e-12
-2.93102e-12
4.47198e-12
-2.95484e-12
5.29154e-12
-2.98477e-12
6.12102e-12
-3.02094e-12
6.96219e-12
-3.06351e-12
7.81684e-12
-3.11267e-12
8.68681e-12
-3.16865e-12
9.57401e-12
-3.23166e-12
1.04805e-11
-3.30198e-12
1.14084e-11
-3.37991e-12
1.23598e-11
-3.46581e-12
1.3337e-11
-3.56008e-12
1.43424e-11
-3.66316e-12
1.53785e-11
-3.77553e-12
1.64481e-11
-3.8977e-12
1.75539e-11
-4.03026e-12
1.8699e-11
-4.17382e-12
1.98865e-11
-4.32908e-12
2.11197e-11
-4.49679e-12
2.24024e-11
-4.67774e-12
2.37383e-11
-4.87282e-12
2.51315e-11
-5.08299e-12
2.65865e-11
-5.30934e-12
2.81079e-11
-5.55298e-12
2.97006e-11
-5.81508e-12
3.137e-11
-6.09691e-12
3.31218e-11
-6.39987e-12
3.49622e-11
-6.7255e-12
3.68977e-11
-7.07542e-12
3.89352e-11
-7.4513e-12
4.10821e-11
-7.85491e-12
4.33465e-11
-8.28816e-12
4.57367e-11
-8.75308e-12
4.82619e-11
-9.25178e-12
5.09315e-11
-9.78647e-12
5.3756e-11
-1.03594e-11
5.6746e-11
-1.09731e-11
5.99128e-11
-1.16298e-11
6.32685e-11
-1.2332e-11
6.68257e-11
-1.30821e-11
7.05977e-11
-1.38826e-11
7.45984e-11
-1.47359e-11
7.88419e-11
-1.56441e-11
8.33431e-11
-1.66092e-11
8.81172e-11
-1.76331e-11
9.31797e-11
-1.87172e-11
9.85461e-11
-1.98624e-11
1.04232e-10
-2.1069e-11
1.10253e-10
-2.23369e-11
1.16624e-10
-2.36648e-11
1.23359e-10
-2.50505e-11
1.3047e-10
-2.64906e-11
1.37971e-10
-2.79802e-11
1.4587e-10
-2.95128e-11
1.54174e-10
-3.10799e-11
1.62888e-10
-3.26709e-11
1.72013e-10
-3.42727e-11
1.81544e-10
-3.58692e-11
1.91471e-10