/*--------------------------------*- C++ -*----------------------------------*\
| =========                 |                                                 |
| \\      /  F ield         | OpenFOAM: The Open Source CFD Toolbox           |
|  \\    /   O peration     | Version:  2412                                  |
|   \\  /    A nd           | Website:  www.openfoam.com                      |
|    \\/     M anipulation  |                                                 |
\*---------------------------------------------------------------------------*/
FoamFile
{
    version     2.0;
    format      ascii;
    arch        "LSB;label=32;scalar=64";
    class       volVectorField;
    location    "900";
    object      U;
}
// * * * * * * * * * * * * * * * * * * * * * * * * * * * * * * * * * * * * * //

dimensions      [0 1 -1 0 0 0 0];

internalField   nonuniform List<vector> 
40000
(
(4.75345e-08 -4.98584e-08 0)
(-7.17262e-08 3.36455e-09 0)
(-5.01861e-07 5.82358e-08 0)
(-1.17566e-06 9.51593e-08 0)
(-2.01494e-06 1.15406e-07 0)
(-2.94662e-06 1.23156e-07 0)
(-3.91186e-06 1.22364e-07 0)
(-4.8656e-06 1.16022e-07 0)
(-5.7748e-06 1.06182e-07 0)
(-6.61609e-06 9.4374e-08 0)
(-7.37377e-06 8.15206e-08 0)
(-8.03838e-06 6.83678e-08 0)
(-8.60508e-06 5.53922e-08 0)
(-9.07287e-06 4.29264e-08 0)
(-9.44345e-06 3.1209e-08 0)
(-9.7207e-06 2.03753e-08 0)
(-9.91001e-06 1.05443e-08 0)
(-1.00178e-05 1.70345e-09 0)
(-1.00512e-05 -6.11448e-09 0)
(-1.00179e-05 -1.29022e-08 0)
(-9.92532e-06 -1.87196e-08 0)
(-9.78111e-06 -2.36251e-08 0)
(-9.59265e-06 -2.76669e-08 0)
(-9.36687e-06 -3.09493e-08 0)
(-9.11043e-06 -3.34985e-08 0)
(-8.82938e-06 -3.53659e-08 0)
(-8.52925e-06 -3.67036e-08 0)
(-8.21516e-06 -3.75272e-08 0)
(-7.89156e-06 -3.79077e-08 0)
(-7.56246e-06 -3.7915e-08 0)
(-7.23133e-06 -3.75922e-08 0)
(-6.90115e-06 -3.69971e-08 0)
(-6.57446e-06 -3.61973e-08 0)
(-6.25339e-06 -3.52133e-08 0)
(-5.93965e-06 -3.40965e-08 0)
(-5.63469e-06 -3.29016e-08 0)
(-5.33957e-06 -3.16101e-08 0)
(-5.05511e-06 -3.02936e-08 0)
(-4.7819e-06 -2.89277e-08 0)
(-4.52033e-06 -2.759e-08 0)
(-4.27057e-06 -2.62245e-08 0)
(-4.0327e-06 -2.4888e-08 0)
(-3.80664e-06 -2.35911e-08 0)
(-3.59217e-06 -2.23114e-08 0)
(-3.3891e-06 -2.1071e-08 0)
(-3.19703e-06 -1.99124e-08 0)
(-3.01564e-06 -1.87961e-08 0)
(-2.84453e-06 -1.77072e-08 0)
(-2.68323e-06 -1.66778e-08 0)
(-2.53125e-06 -1.5715e-08 0)
(-2.38819e-06 -1.48132e-08 0)
(-2.25358e-06 -1.39639e-08 0)
(-2.12693e-06 -1.31554e-08 0)
(-2.00779e-06 -1.23947e-08 0)
(-1.89573e-06 -1.16925e-08 0)
(-1.79032e-06 -1.10383e-08 0)
(-1.69116e-06 -1.04165e-08 0)
(-1.59784e-06 -9.83023e-09 0)
(-1.50999e-06 -9.28703e-09 0)
(-1.42725e-06 -8.78552e-09 0)
(-1.34927e-06 -8.31938e-09 0)
(-1.27574e-06 -7.88633e-09 0)
(-1.20637e-06 -7.48335e-09 0)
(-1.14086e-06 -7.1062e-09 0)
(-1.07896e-06 -6.75099e-09 0)
(-1.0204e-06 -6.42042e-09 0)
(-9.64964e-07 -6.11636e-09 0)
(-9.12422e-07 -5.83705e-09 0)
(-8.62574e-07 -5.57791e-09 0)
(-8.15229e-07 -5.33636e-09 0)
(-7.7021e-07 -5.11117e-09 0)
(-7.27352e-07 -4.90384e-09 0)
(-6.86503e-07 -4.71255e-09 0)
(-6.47519e-07 -4.53283e-09 0)
(-6.10261e-07 -4.36246e-09 0)
(-5.74602e-07 -4.20374e-09 0)
(-5.40425e-07 -4.05753e-09 0)
(-5.07624e-07 -3.92531e-09 0)
(-4.76095e-07 -3.80424e-09 0)
(-4.45746e-07 -3.70037e-09 0)
(-4.16489e-07 -3.60187e-09 0)
(-3.88239e-07 -3.50611e-09 0)
(-3.60918e-07 -3.40528e-09 0)
(-3.3444e-07 -3.3087e-09 0)
(-3.08734e-07 -3.23198e-09 0)
(-2.83738e-07 -3.17152e-09 0)
(-2.59395e-07 -3.12082e-09 0)
(-2.35652e-07 -3.0711e-09 0)
(-2.12445e-07 -3.01918e-09 0)
(-1.89715e-07 -2.96992e-09 0)
(-1.67412e-07 -2.92039e-09 0)
(-1.45479e-07 -2.87125e-09 0)
(-1.23866e-07 -2.83494e-09 0)
(-1.02534e-07 -2.81613e-09 0)
(-8.14413e-08 -2.80604e-09 0)
(-6.05453e-08 -2.79628e-09 0)
(-3.98024e-08 -2.78372e-09 0)
(-1.91656e-08 -2.77056e-09 0)
(1.41261e-09 -2.7627e-09 0)
(2.19742e-08 -2.76211e-09 0)
(4.25569e-08 -2.76495e-09 0)
(6.32002e-08 -2.76924e-09 0)
(8.39454e-08 -2.7781e-09 0)
(1.04836e-07 -2.7951e-09 0)
(1.25917e-07 -2.82046e-09 0)
(1.47232e-07 -2.85249e-09 0)
(1.68825e-07 -2.88927e-09 0)
(1.9074e-07 -2.92882e-09 0)
(2.13026e-07 -2.96891e-09 0)
(2.35736e-07 -3.00919e-09 0)
(2.58921e-07 -3.0528e-09 0)
(2.82631e-07 -3.10455e-09 0)
(3.06918e-07 -3.16667e-09 0)
(3.3184e-07 -3.23614e-09 0)
(3.5746e-07 -3.30901e-09 0)
(3.83846e-07 -3.38582e-09 0)
(4.11069e-07 -3.47151e-09 0)
(4.39197e-07 -3.569e-09 0)
(4.68302e-07 -3.67782e-09 0)
(4.98463e-07 -3.79503e-09 0)
(5.29765e-07 -3.91868e-09 0)
(5.62299e-07 -4.04683e-09 0)
(5.96169e-07 -4.18007e-09 0)
(6.31487e-07 -4.32285e-09 0)
(6.68363e-07 -4.47924e-09 0)
(7.06912e-07 -4.65018e-09 0)
(7.47258e-07 -4.83412e-09 0)
(7.89538e-07 -5.03129e-09 0)
(8.33903e-07 -5.24709e-09 0)
(8.80514e-07 -5.48662e-09 0)
(9.29535e-07 -5.74735e-09 0)
(9.81148e-07 -6.02181e-09 0)
(1.03555e-06 -6.30638e-09 0)
(1.09295e-06 -6.60757e-09 0)
(1.15359e-06 -6.94016e-09 0)
(1.2177e-06 -7.31407e-09 0)
(1.28553e-06 -7.72402e-09 0)
(1.35733e-06 -8.1572e-09 0)
(1.43341e-06 -8.60664e-09 0)
(1.5141e-06 -9.07505e-09 0)
(1.59973e-06 -9.57089e-09 0)
(1.69064e-06 -1.0104e-08 0)
(1.78722e-06 -1.069e-08 0)
(1.88985e-06 -1.13466e-08 0)
(1.99893e-06 -1.2072e-08 0)
(2.11489e-06 -1.28394e-08 0)
(2.23816e-06 -1.36241e-08 0)
(2.36925e-06 -1.44295e-08 0)
(2.50865e-06 -1.52803e-08 0)
(2.65684e-06 -1.61967e-08 0)
(2.81433e-06 -1.71845e-08 0)
(2.98161e-06 -1.82451e-08 0)
(3.15918e-06 -1.93787e-08 0)
(3.34753e-06 -2.05801e-08 0)
(3.54713e-06 -2.18376e-08 0)
(3.75842e-06 -2.31417e-08 0)
(3.9818e-06 -2.44904e-08 0)
(4.21763e-06 -2.58795e-08 0)
(4.46617e-06 -2.73007e-08 0)
(4.72758e-06 -2.87449e-08 0)
(5.00195e-06 -3.01995e-08 0)
(5.28918e-06 -3.1654e-08 0)
(5.58904e-06 -3.31048e-08 0)
(5.90109e-06 -3.4539e-08 0)
(6.22464e-06 -3.59272e-08 0)
(6.55877e-06 -3.72387e-08 0)
(6.90224e-06 -3.8438e-08 0)
(7.25348e-06 -3.94823e-08 0)
(7.61055e-06 -4.03356e-08 0)
(7.97109e-06 -4.09509e-08 0)
(8.33225e-06 -4.12638e-08 0)
(8.69073e-06 -4.12165e-08 0)
(9.0427e-06 -4.07461e-08 0)
(9.38376e-06 -3.97844e-08 0)
(9.70896e-06 -3.8267e-08 0)
(1.00127e-05 -3.61169e-08 0)
(1.0289e-05 -3.32528e-08 0)
(1.0531e-05 -2.9599e-08 0)
(1.07316e-05 -2.50802e-08 0)
(1.08832e-05 -1.96272e-08 0)
(1.09778e-05 -1.31774e-08 0)
(1.10072e-05 -5.67841e-09 0)
(1.09631e-05 2.90985e-09 0)
(1.08373e-05 1.2605e-08 0)
(1.06223e-05 2.33917e-08 0)
(1.03112e-05 3.5226e-08 0)
(9.89818e-06 4.80037e-08 0)
(9.37939e-06 6.15578e-08 0)
(8.75314e-06 7.56345e-08 0)
(8.02093e-06 8.9858e-08 0)
(7.18825e-06 1.03701e-07 0)
(6.26588e-06 1.16389e-07 0)
(5.27118e-06 1.26826e-07 0)
(4.22999e-06 1.33417e-07 0)
(3.17864e-06 1.33878e-07 0)
(2.16631e-06 1.25019e-07 0)
(1.2571e-06 1.02586e-07 0)
(5.30196e-07 6.20587e-08 0)
(6.9263e-08 2.30095e-09 0)
(-5.3676e-08 -5.52818e-08 0)
(-1.07591e-08 7.17091e-08 0)
(-6.07678e-07 5.79589e-07 0)
(-1.86979e-06 1.08614e-06 0)
(-3.65313e-06 1.46824e-06 0)
(-5.80437e-06 1.71206e-06 0)
(-8.17531e-06 1.8336e-06 0)
(-1.06367e-05 1.85702e-06 0)
(-1.30835e-05 1.80564e-06 0)
(-1.54339e-05 1.69946e-06 0)
(-1.76269e-05 1.55505e-06 0)
(-1.96196e-05 1.3856e-06 0)
(-2.13836e-05 1.20162e-06 0)
(-2.2903e-05 1.01134e-06 0)
(-2.41714e-05 8.21178e-07 0)
(-2.51901e-05 6.36016e-07 0)
(-2.59667e-05 4.59497e-07 0)
(-2.65128e-05 2.94266e-07 0)
(-2.68435e-05 1.41994e-07 0)
(-2.69762e-05 3.83344e-09 0)
(-2.69294e-05 -1.19682e-07 0)
(-2.67224e-05 -2.28458e-07 0)
(-2.63746e-05 -3.22741e-07 0)
(-2.5905e-05 -4.03068e-07 0)
(-2.53319e-05 -4.7016e-07 0)
(-2.46727e-05 -5.24903e-07 0)
(-2.39436e-05 -5.68181e-07 0)
(-2.31595e-05 -6.01082e-07 0)
(-2.23341e-05 -6.24582e-07 0)
(-2.14795e-05 -6.39772e-07 0)
(-2.06067e-05 -6.47634e-07 0)
(-1.97252e-05 -6.49127e-07 0)
(-1.88434e-05 -6.45167e-07 0)
(-1.79684e-05 -6.36599e-07 0)
(-1.71061e-05 -6.24191e-07 0)
(-1.62616e-05 -6.0867e-07 0)
(-1.54387e-05 -5.90697e-07 0)
(-1.46408e-05 -5.70781e-07 0)
(-1.38703e-05 -5.49478e-07 0)
(-1.3129e-05 -5.27191e-07 0)
(-1.24181e-05 -5.04351e-07 0)
(-1.17382e-05 -4.81171e-07 0)
(-1.10899e-05 -4.58081e-07 0)
(-1.0473e-05 -4.35154e-07 0)
(-9.88701e-06 -4.12644e-07 0)
(-9.33157e-06 -3.90714e-07 0)
(-8.80577e-06 -3.69436e-07 0)
(-8.30864e-06 -3.48927e-07 0)
(-7.83928e-06 -3.29256e-07 0)
(-7.39653e-06 -3.10434e-07 0)
(-6.97913e-06 -2.92495e-07 0)
(-6.58591e-06 -2.75486e-07 0)
(-6.21568e-06 -2.59386e-07 0)
(-5.86717e-06 -2.44157e-07 0)
(-5.53919e-06 -2.298e-07 0)
(-5.23055e-06 -2.16314e-07 0)
(-4.94012e-06 -2.03657e-07 0)
(-4.66678e-06 -1.9178e-07 0)
(-4.40948e-06 -1.80656e-07 0)
(-4.1672e-06 -1.70251e-07 0)
(-3.93896e-06 -1.60528e-07 0)
(-3.72382e-06 -1.51451e-07 0)
(-3.52091e-06 -1.4299e-07 0)
(-3.32943e-06 -1.3511e-07 0)
(-3.1486e-06 -1.2777e-07 0)
(-2.97769e-06 -1.20932e-07 0)
(-2.81603e-06 -1.14567e-07 0)
(-2.66297e-06 -1.08646e-07 0)
(-2.5179e-06 -1.03142e-07 0)
(-2.38025e-06 -9.80249e-08 0)
(-2.24952e-06 -9.32691e-08 0)
(-2.12521e-06 -8.88503e-08 0)
(-2.00687e-06 -8.47518e-08 0)
(-1.89408e-06 -8.09505e-08 0)
(-1.78643e-06 -7.74218e-08 0)
(-1.68356e-06 -7.41407e-08 0)
(-1.58511e-06 -7.10973e-08 0)
(-1.49077e-06 -6.8273e-08 0)
(-1.40024e-06 -6.56606e-08 0)
(-1.31322e-06 -6.32414e-08 0)
(-1.22946e-06 -6.10172e-08 0)
(-1.1487e-06 -5.89688e-08 0)
(-1.07072e-06 -5.70813e-08 0)
(-9.95301e-07 -5.5331e-08 0)
(-9.22252e-07 -5.37073e-08 0)
(-8.51359e-07 -5.2222e-08 0)
(-7.82422e-07 -5.08746e-08 0)
(-7.1527e-07 -4.96579e-08 0)
(-6.49753e-07 -4.85588e-08 0)
(-5.8572e-07 -4.75668e-08 0)
(-5.23015e-07 -4.66792e-08 0)
(-4.61489e-07 -4.58837e-08 0)
(-4.01006e-07 -4.51717e-08 0)
(-3.41432e-07 -4.45525e-08 0)
(-2.8263e-07 -4.40363e-08 0)
(-2.2447e-07 -4.36212e-08 0)
(-1.66837e-07 -4.32974e-08 0)
(-1.0962e-07 -4.30539e-08 0)
(-5.27045e-08 -4.28862e-08 0)
(4.03472e-09 -4.27995e-08 0)
(6.07245e-08 -4.27985e-08 0)
(1.1748e-07 -4.28818e-08 0)
(1.74403e-07 -4.30474e-08 0)
(2.31603e-07 -4.32956e-08 0)
(2.89201e-07 -4.36277e-08 0)
(3.47327e-07 -4.4046e-08 0)
(4.06104e-07 -4.45538e-08 0)
(4.65655e-07 -4.51543e-08 0)
(5.26106e-07 -4.58485e-08 0)
(5.87591e-07 -4.66353e-08 0)
(6.50242e-07 -4.75152e-08 0)
(7.14193e-07 -4.84941e-08 0)
(7.79588e-07 -4.95818e-08 0)
(8.46584e-07 -5.07867e-08 0)
(9.15348e-07 -5.21097e-08 0)
(9.86051e-07 -5.35497e-08 0)
(1.05887e-06 -5.51122e-08 0)
(1.13398e-06 -5.68113e-08 0)
(1.2116e-06 -5.86597e-08 0)
(1.29193e-06 -6.06679e-08 0)
(1.37519e-06 -6.28448e-08 0)
(1.46161e-06 -6.52001e-08 0)
(1.55145e-06 -6.77389e-08 0)
(1.64498e-06 -7.04679e-08 0)
(1.7425e-06 -7.3404e-08 0)
(1.84432e-06 -7.65698e-08 0)
(1.95076e-06 -7.99852e-08 0)
(2.06219e-06 -8.36636e-08 0)
(2.17895e-06 -8.76179e-08 0)
(2.30147e-06 -9.18717e-08 0)
(2.43019e-06 -9.64557e-08 0)
(2.56559e-06 -1.01396e-07 0)
(2.70817e-06 -1.0671e-07 0)
(2.85845e-06 -1.12413e-07 0)
(3.01699e-06 -1.18525e-07 0)
(3.18443e-06 -1.25089e-07 0)
(3.36144e-06 -1.32157e-07 0)
(3.54872e-06 -1.39771e-07 0)
(3.747e-06 -1.47952e-07 0)
(3.9571e-06 -1.56719e-07 0)
(4.17985e-06 -1.66103e-07 0)
(4.41617e-06 -1.76146e-07 0)
(4.667e-06 -1.86881e-07 0)
(4.93335e-06 -1.98354e-07 0)
(5.21631e-06 -2.10632e-07 0)
(5.51702e-06 -2.23779e-07 0)
(5.83664e-06 -2.37817e-07 0)
(6.17634e-06 -2.52741e-07 0)
(6.53737e-06 -2.68562e-07 0)
(6.92103e-06 -2.85317e-07 0)
(7.32865e-06 -3.0304e-07 0)
(7.76156e-06 -3.21746e-07 0)
(8.2211e-06 -3.41439e-07 0)
(8.70857e-06 -3.62109e-07 0)
(9.22525e-06 -3.83731e-07 0)
(9.77235e-06 -4.06245e-07 0)
(1.0351e-05 -4.29572e-07 0)
(1.09621e-05 -4.5361e-07 0)
(1.16066e-05 -4.78232e-07 0)
(1.2285e-05 -5.03272e-07 0)
(1.29976e-05 -5.28521e-07 0)
(1.37446e-05 -5.53719e-07 0)
(1.45253e-05 -5.78558e-07 0)
(1.53391e-05 -6.02691e-07 0)
(1.61844e-05 -6.2571e-07 0)
(1.70593e-05 -6.47125e-07 0)
(1.7961e-05 -6.66386e-07 0)
(1.88858e-05 -6.82862e-07 0)
(1.98293e-05 -6.95838e-07 0)
(2.07858e-05 -7.04548e-07 0)
(2.17488e-05 -7.08145e-07 0)
(2.27103e-05 -7.05684e-07 0)
(2.36612e-05 -6.96178e-07 0)
(2.45908e-05 -6.78573e-07 0)
(2.54872e-05 -6.51769e-07 0)
(2.63369e-05 -6.14666e-07 0)
(2.71248e-05 -5.66144e-07 0)
(2.78347e-05 -5.05104e-07 0)
(2.84488e-05 -4.30525e-07 0)
(2.89481e-05 -3.41486e-07 0)
(2.93126e-05 -2.37236e-07 0)
(2.95218e-05 -1.17251e-07 0)
(2.95545e-05 1.87007e-08 0)
(2.93899e-05 1.7046e-07 0)
(2.9008e-05 3.37388e-07 0)
(2.83903e-05 5.18228e-07 0)
(2.75208e-05 7.10987e-07 0)
(2.6387e-05 9.12749e-07 0)
(2.49816e-05 1.11948e-06 0)
(2.33037e-05 1.32579e-06 0)
(2.1361e-05 1.52464e-06 0)
(1.91716e-05 1.70701e-06 0)
(1.67674e-05 1.86141e-06 0)
(1.41958e-05 1.97345e-06 0)
(1.15241e-05 2.02525e-06 0)
(8.84203e-06 1.99513e-06 0)
(6.26419e-06 1.85807e-06 0)
(3.93112e-06 1.58835e-06 0)
(2.00323e-06 1.16936e-06 0)
(6.44802e-07 6.17819e-07 0)
(8.97391e-09 6.97736e-08 0)
(-7.12833e-08 5.28714e-07 0)
(-1.16774e-06 1.85927e-06 0)
(-3.18949e-06 3.06406e-06 0)
(-5.90635e-06 3.97774e-06 0)
(-9.11218e-06 4.57686e-06 0)
(-1.26167e-05 4.88957e-06 0)
(-1.62492e-05 4.96301e-06 0)
(-1.9867e-05 4.84673e-06 0)
(-2.3355e-05 4.58633e-06 0)
(-2.6625e-05 4.22142e-06 0)
(-2.96122e-05 3.78526e-06 0)
(-3.22728e-05 3.30513e-06 0)
(-3.45798e-05 2.80312e-06 0)
(-3.65209e-05 2.29673e-06 0)
(-3.80949e-05 1.7997e-06 0)
(-3.93102e-05 1.32244e-06 0)
(-4.01822e-05 8.72731e-07 0)
(-4.07311e-05 4.55916e-07 0)
(-4.09811e-05 7.55442e-08 0)
(-4.09589e-05 -2.66458e-07 0)
(-4.06923e-05 -5.6934e-07 0)
(-4.02095e-05 -8.33426e-07 0)
(-3.95387e-05 -1.05987e-06 0)
(-3.87071e-05 -1.25024e-06 0)
(-3.77406e-05 -1.40684e-06 0)
(-3.66636e-05 -1.53203e-06 0)
(-3.54987e-05 -1.62845e-06 0)
(-3.42667e-05 -1.69884e-06 0)
(-3.29863e-05 -1.74595e-06 0)
(-3.16742e-05 -1.77249e-06 0)
(-3.03453e-05 -1.7811e-06 0)
(-2.90124e-05 -1.77425e-06 0)
(-2.76866e-05 -1.75425e-06 0)
(-2.63774e-05 -1.72322e-06 0)
(-2.50926e-05 -1.68321e-06 0)
(-2.38387e-05 -1.6359e-06 0)
(-2.26208e-05 -1.58298e-06 0)
(-2.14429e-05 -1.52582e-06 0)
(-2.03081e-05 -1.46564e-06 0)
(-1.92184e-05 -1.40357e-06 0)
(-1.81752e-05 -1.34043e-06 0)
(-1.71792e-05 -1.27715e-06 0)
(-1.62303e-05 -1.21421e-06 0)
(-1.53283e-05 -1.15224e-06 0)
(-1.44724e-05 -1.09172e-06 0)
(-1.36614e-05 -1.03287e-06 0)
(-1.28943e-05 -9.76033e-07 0)
(-1.21693e-05 -9.21419e-07 0)
(-1.14849e-05 -8.69108e-07 0)
(-1.08394e-05 -8.19196e-07 0)
(-1.02309e-05 -7.71765e-07 0)
(-9.65767e-06 -7.26796e-07 0)
(-9.11778e-06 -6.84258e-07 0)
(-8.60947e-06 -6.44132e-07 0)
(-8.13095e-06 -6.0636e-07 0)
(-7.68047e-06 -5.70861e-07 0)
(-7.25634e-06 -5.37555e-07 0)
(-6.85696e-06 -5.06359e-07 0)
(-6.48076e-06 -4.77161e-07 0)
(-6.12626e-06 -4.49852e-07 0)
(-5.79204e-06 -4.24341e-07 0)
(-5.47678e-06 -4.00541e-07 0)
(-5.1792e-06 -3.78356e-07 0)
(-4.89811e-06 -3.57689e-07 0)
(-4.6324e-06 -3.38442e-07 0)
(-4.38102e-06 -3.20525e-07 0)
(-4.14298e-06 -3.03851e-07 0)
(-3.91734e-06 -2.88337e-07 0)
(-3.70324e-06 -2.73911e-07 0)
(-3.49988e-06 -2.60503e-07 0)
(-3.30649e-06 -2.48047e-07 0)
(-3.12239e-06 -2.36482e-07 0)
(-2.9469e-06 -2.25743e-07 0)
(-2.77941e-06 -2.15775e-07 0)
(-2.61933e-06 -2.06525e-07 0)
(-2.46614e-06 -1.97947e-07 0)
(-2.31933e-06 -1.89996e-07 0)
(-2.17845e-06 -1.82631e-07 0)
(-2.04304e-06 -1.75813e-07 0)
(-1.91272e-06 -1.69507e-07 0)
(-1.78707e-06 -1.63689e-07 0)
(-1.66573e-06 -1.58334e-07 0)
(-1.54836e-06 -1.53413e-07 0)
(-1.43467e-06 -1.48885e-07 0)
(-1.32434e-06 -1.44722e-07 0)
(-1.21708e-06 -1.40914e-07 0)
(-1.11261e-06 -1.37451e-07 0)
(-1.01069e-06 -1.34321e-07 0)
(-9.11071e-07 -1.31507e-07 0)
(-8.13508e-07 -1.28991e-07 0)
(-7.17768e-07 -1.26758e-07 0)
(-6.23645e-07 -1.24798e-07 0)
(-5.30945e-07 -1.23093e-07 0)
(-4.39466e-07 -1.2164e-07 0)
(-3.49002e-07 -1.2044e-07 0)
(-2.59355e-07 -1.19495e-07 0)
(-1.70343e-07 -1.18797e-07 0)
(-8.1788e-08 -1.18334e-07 0)
(6.49081e-09 -1.18099e-07 0)
(9.46831e-08 -1.18093e-07 0)
(1.8297e-07 -1.18325e-07 0)
(2.71526e-07 -1.188e-07 0)
(3.60524e-07 -1.19514e-07 0)
(4.5015e-07 -1.2046e-07 0)
(5.40592e-07 -1.21641e-07 0)
(6.32039e-07 -1.23066e-07 0)
(7.24686e-07 -1.24743e-07 0)
(8.18735e-07 -1.26682e-07 0)
(9.14396e-07 -1.2889e-07 0)
(1.01188e-06 -1.31379e-07 0)
(1.11139e-06 -1.34158e-07 0)
(1.21315e-06 -1.37239e-07 0)
(1.31741e-06 -1.40633e-07 0)
(1.42442e-06 -1.44355e-07 0)
(1.53445e-06 -1.48423e-07 0)
(1.64778e-06 -1.52854e-07 0)
(1.76468e-06 -1.57671e-07 0)
(1.88548e-06 -1.62896e-07 0)
(2.01048e-06 -1.68555e-07 0)
(2.14005e-06 -1.74682e-07 0)
(2.27454e-06 -1.81309e-07 0)
(2.41437e-06 -1.88466e-07 0)
(2.55995e-06 -1.96179e-07 0)
(2.71173e-06 -2.04486e-07 0)
(2.87019e-06 -2.13434e-07 0)
(3.03585e-06 -2.23076e-07 0)
(3.20925e-06 -2.33464e-07 0)
(3.39098e-06 -2.44646e-07 0)
(3.58165e-06 -2.56668e-07 0)
(3.78195e-06 -2.69591e-07 0)
(3.99262e-06 -2.83489e-07 0)
(4.21443e-06 -2.98445e-07 0)
(4.44823e-06 -3.14533e-07 0)
(4.6949e-06 -3.31814e-07 0)
(4.95535e-06 -3.50357e-07 0)
(5.23062e-06 -3.7026e-07 0)
(5.5218e-06 -3.91639e-07 0)
(5.83005e-06 -4.14594e-07 0)
(6.15661e-06 -4.39217e-07 0)
(6.5028e-06 -4.65607e-07 0)
(6.87e-06 -4.9388e-07 0)
(7.25968e-06 -5.24132e-07 0)
(7.67336e-06 -5.56444e-07 0)
(8.11265e-06 -5.90917e-07 0)
(8.57928e-06 -6.27687e-07 0)
(9.07505e-06 -6.66882e-07 0)
(9.60181e-06 -7.08591e-07 0)
(1.01615e-05 -7.5287e-07 0)
(1.07559e-05 -7.99764e-07 0)
(1.13872e-05 -8.49316e-07 0)
(1.20573e-05 -9.0154e-07 0)
(1.27681e-05 -9.56422e-07 0)
(1.35217e-05 -1.01391e-06 0)
(1.43198e-05 -1.07391e-06 0)
(1.51643e-05 -1.13626e-06 0)
(1.60568e-05 -1.20075e-06 0)
(1.69986e-05 -1.26706e-06 0)
(1.79909e-05 -1.33482e-06 0)
(1.90344e-05 -1.40354e-06 0)
(2.01294e-05 -1.47263e-06 0)
(2.12759e-05 -1.54136e-06 0)
(2.24728e-05 -1.60884e-06 0)
(2.37188e-05 -1.67406e-06 0)
(2.50113e-05 -1.73582e-06 0)
(2.63469e-05 -1.79275e-06 0)
(2.77212e-05 -1.84331e-06 0)
(2.91283e-05 -1.88574e-06 0)
(3.0561e-05 -1.91806e-06 0)
(3.20105e-05 -1.93812e-06 0)
(3.34664e-05 -1.94357e-06 0)
(3.49163e-05 -1.93187e-06 0)
(3.63459e-05 -1.90031e-06 0)
(3.7739e-05 -1.84604e-06 0)
(3.90771e-05 -1.76612e-06 0)
(4.03394e-05 -1.65757e-06 0)
(4.15034e-05 -1.51747e-06 0)
(4.25441e-05 -1.34297e-06 0)
(4.3435e-05 -1.13147e-06 0)
(4.41475e-05 -8.80697e-07 0)
(4.46521e-05 -5.88889e-07 0)
(4.49183e-05 -2.54956e-07 0)
(4.49154e-05 1.21319e-07 0)
(4.46133e-05 5.39023e-07 0)
(4.39834e-05 9.95874e-07 0)
(4.29999e-05 1.48786e-06 0)
(4.16411e-05 2.00891e-06 0)
(3.9891e-05 2.55044e-06 0)
(3.77416e-05 3.10089e-06 0)
(3.51949e-05 3.64519e-06 0)
(3.22654e-05 4.16404e-06 0)
(2.89836e-05 4.63333e-06 0)
(2.53986e-05 5.02325e-06 0)
(2.15818e-05 5.2977e-06 0)
(1.76304e-05 5.41384e-06 0)
(1.36704e-05 5.32241e-06 0)
(9.85754e-06 4.97036e-06 0)
(6.37713e-06 4.30774e-06 0)
(3.43509e-06 3.3059e-06 0)
(1.25239e-06 1.99393e-06 0)
(7.48265e-08 5.56632e-07 0)
(-1.15222e-07 1.26404e-06 0)
(-1.62647e-06 3.73372e-06 0)
(-4.28493e-06 5.82218e-06 0)
(-7.76839e-06 7.3876e-06 0)
(-1.18203e-05 8.41995e-06 0)
(-1.62192e-05 8.96775e-06 0)
(-2.07674e-05 9.10433e-06 0)
(-2.52984e-05 8.90833e-06 0)
(-2.96757e-05 8.45443e-06 0)
(-3.37923e-05 7.80932e-06 0)
(-3.75681e-05 7.03044e-06 0)
(-4.09468e-05 6.16622e-06 0)
(-4.38928e-05 5.25648e-06 0)
(-4.63877e-05 4.33342e-06 0)
(-4.84277e-05 3.42265e-06 0)
(-5.00201e-05 2.54391e-06 0)
(-5.11819e-05 1.71217e-06 0)
(-5.19365e-05 9.38055e-07 0)
(-5.23124e-05 2.28744e-07 0)
(-5.23416e-05 -4.11514e-07 0)
(-5.2058e-05 -9.80879e-07 0)
(-5.14965e-05 -1.47938e-06 0)
(-5.06918e-05 -1.9087e-06 0)
(-4.96777e-05 -2.27154e-06 0)
(-4.84871e-05 -2.57166e-06 0)
(-4.71506e-05 -2.8133e-06 0)
(-4.56969e-05 -3.00122e-06 0)
(-4.41526e-05 -3.14034e-06 0)
(-4.25415e-05 -3.23562e-06 0)
(-4.08854e-05 -3.29201e-06 0)
(-3.92032e-05 -3.31439e-06 0)
(-3.75118e-05 -3.30729e-06 0)
(-3.58256e-05 -3.27505e-06 0)
(-3.41572e-05 -3.2217e-06 0)
(-3.25168e-05 -3.15091e-06 0)
(-3.0913e-05 -3.06599e-06 0)
(-2.93529e-05 -2.97005e-06 0)
(-2.78419e-05 -2.86563e-06 0)
(-2.6384e-05 -2.7552e-06 0)
(-2.49823e-05 -2.64072e-06 0)
(-2.36387e-05 -2.52402e-06 0)
(-2.23545e-05 -2.40653e-06 0)
(-2.11297e-05 -2.28954e-06 0)
(-1.99643e-05 -2.17407e-06 0)
(-1.88575e-05 -2.06095e-06 0)
(-1.78078e-05 -1.95092e-06 0)
(-1.6814e-05 -1.84449e-06 0)
(-1.58741e-05 -1.74199e-06 0)
(-1.49862e-05 -1.64373e-06 0)
(-1.41481e-05 -1.54991e-06 0)
(-1.33576e-05 -1.46063e-06 0)
(-1.26124e-05 -1.3759e-06 0)
(-1.19102e-05 -1.29571e-06 0)
(-1.12487e-05 -1.22001e-06 0)
(-1.06256e-05 -1.14868e-06 0)
(-1.00388e-05 -1.08159e-06 0)
(-9.48611e-06 -1.01861e-06 0)
(-8.96543e-06 -9.59566e-07 0)
(-8.47478e-06 -9.04284e-07 0)
(-8.01225e-06 -8.52573e-07 0)
(-7.57605e-06 -8.04257e-07 0)
(-7.16446e-06 -7.59153e-07 0)
(-6.77585e-06 -7.17079e-07 0)
(-6.40869e-06 -6.77858e-07 0)
(-6.06153e-06 -6.41322e-07 0)
(-5.73301e-06 -6.07304e-07 0)
(-5.42186e-06 -5.75642e-07 0)
(-5.12686e-06 -5.4618e-07 0)
(-4.84691e-06 -5.1878e-07 0)
(-4.58095e-06 -4.93309e-07 0)
(-4.32801e-06 -4.69644e-07 0)
(-4.08717e-06 -4.47656e-07 0)
(-3.85757e-06 -4.27234e-07 0)
(-3.63841e-06 -4.0827e-07 0)
(-3.42894e-06 -3.90675e-07 0)
(-3.22846e-06 -3.74355e-07 0)
(-3.03633e-06 -3.59233e-07 0)
(-2.85192e-06 -3.45232e-07 0)
(-2.67467e-06 -3.32281e-07 0)
(-2.50406e-06 -3.20298e-07 0)
(-2.33957e-06 -3.09222e-07 0)
(-2.18073e-06 -2.99006e-07 0)
(-2.02709e-06 -2.89612e-07 0)
(-1.87824e-06 -2.80995e-07 0)
(-1.73377e-06 -2.73098e-07 0)
(-1.59332e-06 -2.65878e-07 0)
(-1.45654e-06 -2.59308e-07 0)
(-1.32309e-06 -2.53356e-07 0)
(-1.19265e-06 -2.47991e-07 0)
(-1.0649e-06 -2.43181e-07 0)
(-9.39555e-07 -2.38913e-07 0)
(-8.16321e-07 -2.3518e-07 0)
(-6.9493e-07 -2.31959e-07 0)
(-5.7513e-07 -2.29224e-07 0)
(-4.56667e-07 -2.26957e-07 0)
(-3.39285e-07 -2.25153e-07 0)
(-2.22733e-07 -2.23813e-07 0)
(-1.06772e-07 -2.22927e-07 0)
(8.83515e-09 -2.22483e-07 0)
(1.24322e-07 -2.22476e-07 0)
(2.39923e-07 -2.22914e-07 0)
(3.55872e-07 -2.23805e-07 0)
(4.72412e-07 -2.25149e-07 0)
(5.89781e-07 -2.26946e-07 0)
(7.08223e-07 -2.292e-07 0)
(8.27982e-07 -2.31922e-07 0)
(9.49311e-07 -2.35121e-07 0)
(1.07247e-06 -2.3881e-07 0)
(1.19774e-06 -2.43007e-07 0)
(1.32539e-06 -2.47735e-07 0)
(1.45569e-06 -2.5302e-07 0)
(1.58895e-06 -2.5888e-07 0)
(1.72548e-06 -2.65333e-07 0)
(1.86562e-06 -2.72408e-07 0)
(2.0097e-06 -2.80143e-07 0)
(2.15809e-06 -2.88583e-07 0)
(2.31117e-06 -2.97763e-07 0)
(2.46934e-06 -3.07726e-07 0)
(2.63302e-06 -3.18517e-07 0)
(2.80267e-06 -3.30186e-07 0)
(2.97876e-06 -3.42792e-07 0)
(3.16182e-06 -3.56398e-07 0)
(3.35241e-06 -3.71072e-07 0)
(3.5511e-06 -3.86888e-07 0)
(3.75852e-06 -4.03923e-07 0)
(3.97534e-06 -4.22264e-07 0)
(4.20227e-06 -4.42013e-07 0)
(4.44008e-06 -4.63273e-07 0)
(4.68959e-06 -4.86146e-07 0)
(4.95167e-06 -5.10736e-07 0)
(5.22726e-06 -5.37161e-07 0)
(5.51738e-06 -5.65561e-07 0)
(5.82312e-06 -5.96093e-07 0)
(6.14564e-06 -6.28908e-07 0)
(6.48615e-06 -6.64154e-07 0)
(6.84596e-06 -7.01988e-07 0)
(7.22647e-06 -7.42583e-07 0)
(7.62919e-06 -7.8612e-07 0)
(8.0557e-06 -8.32782e-07 0)
(8.50771e-06 -8.82763e-07 0)
(8.98699e-06 -9.36277e-07 0)
(9.49545e-06 -9.93545e-07 0)
(1.00351e-05 -1.05476e-06 0)
(1.06079e-05 -1.12008e-06 0)
(1.12162e-05 -1.18969e-06 0)
(1.18621e-05 -1.26377e-06 0)
(1.2548e-05 -1.34249e-06 0)
(1.32764e-05 -1.42599e-06 0)
(1.40497e-05 -1.51439e-06 0)
(1.48705e-05 -1.60773e-06 0)
(1.57411e-05 -1.70604e-06 0)
(1.66641e-05 -1.80927e-06 0)
(1.76419e-05 -1.91729e-06 0)
(1.86769e-05 -2.02988e-06 0)
(1.97711e-05 -2.14673e-06 0)
(2.09265e-05 -2.26738e-06 0)
(2.21446e-05 -2.39123e-06 0)
(2.34269e-05 -2.51754e-06 0)
(2.4774e-05 -2.64534e-06 0)
(2.61861e-05 -2.77347e-06 0)
(2.76629e-05 -2.90055e-06 0)
(2.92028e-05 -3.02492e-06 0)
(3.08037e-05 -3.1446e-06 0)
(3.24622e-05 -3.25734e-06 0)
(3.41735e-05 -3.36054e-06 0)
(3.59315e-05 -3.45124e-06 0)
(3.77284e-05 -3.52615e-06 0)
(3.95546e-05 -3.58157e-06 0)
(4.13985e-05 -3.61344e-06 0)
(4.32463e-05 -3.61739e-06 0)
(4.5082e-05 -3.58868e-06 0)
(4.6887e-05 -3.5223e-06 0)
(4.86402e-05 -3.41303e-06 0)
(5.03178e-05 -3.25549e-06 0)
(5.18933e-05 -3.04426e-06 0)
(5.33379e-05 -2.77405e-06 0)
(5.46199e-05 -2.43982e-06 0)
(5.57058e-05 -2.03699e-06 0)
(5.65598e-05 -1.56169e-06 0)
(5.71451e-05 -1.01105e-06 0)
(5.74238e-05 -3.83508e-07 0)
(5.73582e-05 3.20796e-07 0)
(5.69116e-05 1.09958e-06 0)
(5.60499e-05 1.94794e-06 0)
(5.47423e-05 2.85776e-06 0)
(5.29641e-05 3.81707e-06 0)
(5.06979e-05 4.80937e-06 0)
(4.79365e-05 5.81273e-06 0)
(4.46853e-05 6.79905e-06 0)
(4.09656e-05 7.73296e-06 0)
(3.68175e-05 8.57093e-06 0)
(3.23037e-05 9.26029e-06 0)
(2.75127e-05 9.73861e-06 0)
(2.25622e-05 9.93374e-06 0)
(1.76012e-05 9.76525e-06 0)
(1.28118e-05 9.14903e-06 0)
(8.40814e-06 8.00755e-06 0)
(4.63009e-06 6.29149e-06 0)
(1.75315e-06 4.01708e-06 0)
(1.22943e-07 1.34675e-06 0)
(-1.43172e-07 2.21057e-06 0)
(-1.96381e-06 6.07962e-06 0)
(-5.11575e-06 9.20378e-06 0)
(-9.19711e-06 1.15101e-05 0)
(-1.39057e-05 1.30272e-05 0)
(-1.89933e-05 1.38362e-05 0)
(-2.42427e-05 1.40417e-05 0)
(-2.94711e-05 1.37542e-05 0)
(-3.45285e-05 1.30792e-05 0)
(-3.92957e-05 1.21125e-05 0)
(-4.3682e-05 1.09382e-05 0)
(-4.76222e-05 9.62789e-06 0)
(-5.10741e-05 8.24181e-06 0)
(-5.40144e-05 6.82915e-06 0)
(-5.64359e-05 5.42951e-06 0)
(-5.83451e-05 4.07396e-06 0)
(-5.97586e-05 2.78616e-06 0)
(-6.07016e-05 1.5834e-06 0)
(-6.12049e-05 4.7757e-07 0)
(-6.13039e-05 -5.23964e-07 0)
(-6.10365e-05 -1.41771e-06 0)
(-6.04419e-05 -2.20306e-06 0)
(-5.95596e-05 -2.88202e-06 0)
(-5.84284e-05 -3.45839e-06 0)
(-5.70859e-05 -3.93749e-06 0)
(-5.55675e-05 -4.32561e-06 0)
(-5.39067e-05 -4.62987e-06 0)
(-5.21343e-05 -4.85766e-06 0)
(-5.02783e-05 -5.0166e-06 0)
(-4.83642e-05 -5.11431e-06 0)
(-4.64147e-05 -5.15811e-06 0)
(-4.44495e-05 -5.15519e-06 0)
(-4.24861e-05 -5.1122e-06 0)
(-4.05393e-05 -5.03547e-06 0)
(-3.86216e-05 -4.93064e-06 0)
(-3.67436e-05 -4.8031e-06 0)
(-3.49136e-05 -4.65749e-06 0)
(-3.31386e-05 -4.498e-06 0)
(-3.14236e-05 -4.32848e-06 0)
(-2.97726e-05 -4.15199e-06 0)
(-2.8188e-05 -3.97153e-06 0)
(-2.66716e-05 -3.78934e-06 0)
(-2.52238e-05 -3.60753e-06 0)
(-2.38447e-05 -3.42777e-06 0)
(-2.25336e-05 -3.25133e-06 0)
(-2.12892e-05 -3.07938e-06 0)
(-2.01098e-05 -2.91284e-06 0)
(-1.89935e-05 -2.75227e-06 0)
(-1.79381e-05 -2.59817e-06 0)
(-1.69411e-05 -2.45085e-06 0)
(-1.60001e-05 -2.31051e-06 0)
(-1.51123e-05 -2.17722e-06 0)
(-1.42753e-05 -2.05097e-06 0)
(-1.34863e-05 -1.9317e-06 0)
(-1.27427e-05 -1.81923e-06 0)
(-1.20419e-05 -1.71339e-06 0)
(-1.13816e-05 -1.61396e-06 0)
(-1.07592e-05 -1.52068e-06 0)
(-1.01724e-05 -1.43329e-06 0)
(-9.61907e-06 -1.35152e-06 0)
(-9.09698e-06 -1.27509e-06 0)
(-8.60415e-06 -1.20371e-06 0)
(-8.13866e-06 -1.13709e-06 0)
(-7.69872e-06 -1.07497e-06 0)
(-7.28261e-06 -1.01708e-06 0)
(-6.88872e-06 -9.63152e-07 0)
(-6.51554e-06 -9.12946e-07 0)
(-6.16164e-06 -8.6622e-07 0)
(-5.82572e-06 -8.22754e-07 0)
(-5.50651e-06 -7.82338e-07 0)
(-5.20286e-06 -7.44776e-07 0)
(-4.91367e-06 -7.0987e-07 0)
(-4.63793e-06 -6.77445e-07 0)
(-4.37468e-06 -6.47335e-07 0)
(-4.12303e-06 -6.1939e-07 0)
(-3.88215e-06 -5.93466e-07 0)
(-3.65127e-06 -5.69434e-07 0)
(-3.42965e-06 -5.47179e-07 0)
(-3.2166e-06 -5.26587e-07 0)
(-3.01149e-06 -5.07554e-07 0)
(-2.81372e-06 -4.89968e-07 0)
(-2.62273e-06 -4.73742e-07 0)
(-2.438e-06 -4.58804e-07 0)
(-2.259e-06 -4.45087e-07 0)
(-2.08527e-06 -4.32524e-07 0)
(-1.91635e-06 -4.21048e-07 0)
(-1.75183e-06 -4.10607e-07 0)
(-1.59131e-06 -4.01154e-07 0)
(-1.43439e-06 -3.92634e-07 0)
(-1.28071e-06 -3.85001e-07 0)
(-1.12992e-06 -3.78222e-07 0)
(-9.81677e-07 -3.72275e-07 0)
(-8.3565e-07 -3.67139e-07 0)
(-6.91518e-07 -3.6279e-07 0)
(-5.48983e-07 -3.59196e-07 0)
(-4.07753e-07 -3.56337e-07 0)
(-2.67527e-07 -3.54202e-07 0)
(-1.28007e-07 -3.52788e-07 0)
(1.10935e-08 -3.52083e-07 0)
(1.50051e-07 -3.52085e-07 0)
(2.89141e-07 -3.52792e-07 0)
(4.28651e-07 -3.54206e-07 0)
(5.68871e-07 -3.56332e-07 0)
(7.1009e-07 -3.59176e-07 0)
(8.52597e-07 -3.62752e-07 0)
(9.96688e-07 -3.67075e-07 0)
(1.14267e-06 -3.72163e-07 0)
(1.29086e-06 -3.78034e-07 0)
(1.44157e-06 -3.84714e-07 0)
(1.59513e-06 -3.92238e-07 0)
(1.75189e-06 -4.0064e-07 0)
(1.91221e-06 -4.09956e-07 0)
(2.07647e-06 -4.20218e-07 0)
(2.24504e-06 -4.31473e-07 0)
(2.41835e-06 -4.43777e-07 0)
(2.59683e-06 -4.57193e-07 0)
(2.78094e-06 -4.71786e-07 0)
(2.97115e-06 -4.87624e-07 0)
(3.16799e-06 -5.04785e-07 0)
(3.37199e-06 -5.23346e-07 0)
(3.58372e-06 -5.43393e-07 0)
(3.80381e-06 -5.65025e-07 0)
(4.03292e-06 -5.88353e-07 0)
(4.27174e-06 -6.13498e-07 0)
(4.52103e-06 -6.40584e-07 0)
(4.78157e-06 -6.69739e-07 0)
(5.05422e-06 -7.01111e-07 0)
(5.33988e-06 -7.34867e-07 0)
(5.63956e-06 -7.71178e-07 0)
(5.95429e-06 -8.10224e-07 0)
(6.28519e-06 -8.52192e-07 0)
(6.63344e-06 -8.97278e-07 0)
(7.00035e-06 -9.45706e-07 0)
(7.38728e-06 -9.97724e-07 0)
(7.7957e-06 -1.05359e-06 0)
(8.22715e-06 -1.11356e-06 0)
(8.6833e-06 -1.17789e-06 0)
(9.16592e-06 -1.24687e-06 0)
(9.6769e-06 -1.32079e-06 0)
(1.02182e-05 -1.39993e-06 0)
(1.07919e-05 -1.4846e-06 0)
(1.14003e-05 -1.57512e-06 0)
(1.20457e-05 -1.67182e-06 0)
(1.27305e-05 -1.775e-06 0)
(1.34573e-05 -1.88493e-06 0)
(1.42288e-05 -2.00186e-06 0)
(1.50475e-05 -2.12603e-06 0)
(1.59165e-05 -2.25764e-06 0)
(1.68384e-05 -2.39683e-06 0)
(1.78162e-05 -2.54368e-06 0)
(1.88528e-05 -2.6982e-06 0)
(1.99509e-05 -2.86029e-06 0)
(2.11134e-05 -3.02973e-06 0)
(2.23428e-05 -3.20613e-06 0)
(2.36415e-05 -3.38896e-06 0)
(2.50115e-05 -3.57747e-06 0)
(2.64547e-05 -3.7707e-06 0)
(2.79723e-05 -3.96742e-06 0)
(2.9565e-05 -4.16607e-06 0)
(3.12328e-05 -4.36478e-06 0)
(3.29747e-05 -4.56131e-06 0)
(3.4789e-05 -4.75299e-06 0)
(3.66726e-05 -4.93671e-06 0)
(3.86212e-05 -5.10888e-06 0)
(4.06288e-05 -5.26538e-06 0)
(4.26879e-05 -5.40156e-06 0)
(4.4789e-05 -5.51221e-06 0)
(4.69204e-05 -5.59157e-06 0)
(4.9068e-05 -5.6333e-06 0)
(5.12154e-05 -5.63057e-06 0)
(5.33435e-05 -5.57603e-06 0)
(5.543e-05 -5.46194e-06 0)
(5.74502e-05 -5.28025e-06 0)
(5.9376e-05 -5.02275e-06 0)
(6.11764e-05 -4.68119e-06 0)
(6.28178e-05 -4.24758e-06 0)
(6.42634e-05 -3.71436e-06 0)
(6.54744e-05 -3.07483e-06 0)
(6.64099e-05 -2.32341e-06 0)
(6.70275e-05 -1.45617e-06 0)
(6.72844e-05 -4.71314e-07 0)
(6.71381e-05 6.30266e-07 0)
(6.65475e-05 1.84427e-06 0)
(6.54749e-05 3.16228e-06 0)
(6.38871e-05 4.57089e-06 0)
(6.17576e-05 6.05079e-06 0)
(5.90692e-05 7.57572e-06 0)
(5.58162e-05 9.11138e-06 0)
(5.20076e-05 1.06142e-05 0)
(4.76698e-05 1.20303e-05 0)
(4.28508e-05 1.3294e-05 0)
(3.76227e-05 1.43272e-05 0)
(3.20855e-05 1.50387e-05 0)
(2.63702e-05 1.5325e-05 0)
(2.06411e-05 1.50725e-05 0)
(1.50973e-05 1.41632e-05 0)
(9.97445e-06 1.24863e-05 0)
(5.54144e-06 9.95861e-06 0)
(2.12365e-06 6.55592e-06 0)
(1.53825e-07 2.36829e-06 0)